
                                 *****************
                                 * O   R   C   A *
                                 *****************

                                            #,                                       
                                            ###                                      
                                            ####                                     
                                            #####                                    
                                            ######                                   
                                           ########,                                 
                                     ,,################,,,,,                         
                               ,,#################################,,                 
                          ,,##########################################,,             
                       ,#########################################, ''#####,          
                    ,#############################################,,   '####,        
                  ,##################################################,,,,####,       
                ,###########''''           ''''###############################       
              ,#####''   ,,,,##########,,,,          '''####'''          '####       
            ,##' ,,,,###########################,,,                        '##       
           ' ,,###''''                  '''############,,,                           
         ,,##''                                '''############,,,,        ,,,,,,###''
      ,#''                                            '''#######################'''  
     '                                                          ''''####''''         
             ,#######,   #######,   ,#######,      ##                                
            ,#'     '#,  ##    ##  ,#'     '#,    #''#        ,####,   ,####,        
            ##       ##  ##   ,#'  ##            #'  '#       #'       #'  '#        
            ##       ##  #######   ##           ,######,      #####,   #    #        
            '#,     ,#'  ##    ##  '#,     ,#' ,#      #,     #,   #   #,  ,#        
             '#######'   ##     ##  '#######'  #'      '#     '####' # '####'        



                #########################################################
                #                        -***-                          #
                #          Department of theory and spectroscopy        #
                #                                                       #
                #                      Frank Neese                      #
                #                                                       #
                #     Directorship, Architecture, Infrastructure        #
                #                    SHARK, DRIVERS                     #
                #        Core code/Algorithms in most modules           #
                #                                                       #
                #        Max Planck Institute fuer Kohlenforschung      #
                #                Kaiser Wilhelm Platz 1                 #
                #                 D-45470 Muelheim/Ruhr                 #
                #                      Germany                          #
                #                                                       #
                #                  All rights reserved                  #
                #                        -***-                          #
                #########################################################


                         Program Version 6.0.1  -  RELEASE   -


 With contributions from (in alphabetic order):
[Max-Planck-Institut fuer Kohlenforschung]                               
  Daniel Aravena         : Magnetic Suceptibility                        
  Michael Atanasov       : Ab Initio Ligand Field Theory (pilot matlab implementation)
  Alexander A. Auer      : GIAO ZORA, VPT2 properties, NMR spectrum      
  Ute Becker             : All parallelization in ORCA, NUMFREQ, NUMCALC 
  Giovanni Bistoni       : ED, misc. LED, open-shell LED, HFLD           
  Martin Brehm           : Molecular dynamics                            
  Dmytro Bykov           : pre 5.0 version of the SCF Hessian            
  Marcos Casanova-Páez   : Triplet and SCS-CIS(D). UHF-(DLPNO)-IP/EA/STEOM-CCSD. UHF-CVS-IP/STEOM-CCSD   
  Vijay G. Chilkuri      : MRCI spin determinant printing, contributions to CSF-ICE 
  Pauline Colinet        : FMM embedding                                 
  Dipayan Datta          : RHF DLPNO-CCSD density                        
  Achintya Kumar Dutta   : EOM-CC, STEOM-CC                              
  Nicolas Foglia         : Exact transition moments, OPA infrastructure, MCD improvements    
  Dmitry Ganyushin       : Spin-Orbit,Spin-Spin,Magnetic field MRCI      
  Miquel Garcia-Rates    : C-PCM and meta-GGA Hessian, CCSD/C-PCM, Gaussian charge scheme 
  Tiago L. C. Gouveia    : GS-ROHF, GS-ROCIS                             
  Yang Guo               : DLPNO-NEVPT2, F12-NEVPT2, CIM, IAO-localization        
  Andreas Hansen         : Spin unrestricted coupled pair/coupled cluster methods 
  Ingolf Harden          : AUTO-CI MPn and infrastructure                
  Benjamin Helmich-Paris : MC-RPA, TRAH-(SCF,CASSCF), AVAS, COSX integrals, SCF dyn. polar. 
  Lee Huntington         : MR-EOM, pCC                                   
  Robert Izsak           : Overlap fitted RIJCOSX, COSX-SCS-MP3, EOM     
  Riya Kayal             : Wick's Theorem for AUTO-CI, AUTO-CI UHF-CCSDT 
  Emily Kempfer          : AUTO-CI, RHF CISDT and CCSDT                  
  Christian Kollmar      : KDIIS, OOCD, Brueckner-CCSD(T), CCSD density, CASPT2, CASPT2-K, improved NEVPT2 
  Axel Koslowski         : Symmetry handling                             
  Simone Kossmann        : meta-GGA functionals, TD-DFT gradient, OOMP2, (MP2 Hessian; deprecated post 5.0) 
  Lucas Lang             : DCDCAS                                        
  Marvin Lechner         : AUTO-CI (C++ implementation), FIC-MRCC        
  Spencer Leger          : CASSCF response                               
  Dagmar Lenk            : GEPOL surface, SMD, ORCA-2-JSON               
  Dimitrios Liakos       : Extrapolation schemes; Compound Job, initial MDCI parallelization 
  Dimitrios Manganas     : Further ROCIS development; embedding schemes. LFT, Crystal Embedding 
  Dimitrios Pantazis     : SARC Basis sets                               
  Anastasios Papadopoulos: AUTO-CI, single reference methods and gradients 
  Taras Petrenko         : pre 6.0 DFT Hessian and TD-DFT gradient, (ASA, deprecated), ECA, 1-Electron XAS/XES, NRVS 
  Peter Pinski           : DLPNO-MP2, DLPNO-MP2 Gradient                 
  Christoph Reimann      : Effective Core Potentials                     
  Marius Retegan         : Local ZFS, SOC                                
  Christoph Riplinger    : Optimizer, TS searches, QM/MM, DLPNO-CCSD(T), (RO)-DLPNO pert. Triples 
  Michael Roemelt        : Original ROCIS implementation                 
  Masaaki Saitow         : Open-shell DLPNO-CCSD energy and density      
  Barbara Sandhoefer     : DKH picture change effects                    
  Kantharuban Sivalingam : CASSCF convergence/infrastructure, NEVPT2 and variants, FIC-MRCI 
  Bernardo de Souza      : ESD, SOC TD-DFT                               
  Georgi L. Stoychev     : AutoAux, RI-MP2 NMR, DLPNO-MP2 response, X2C  
  Van Anh Tran           : RI-MP2 g-tensors                              
  Willem Van den Heuvel  : Paramagnetic NMR                              
  Zikuan Wang            : NOTCH, Electric field optimization            
  Frank Wennmohs         : Technical directorship and infrastructure     
  Hang Xu                : AUTO-CI-Response properties                   
                                                                         
[FACCTs GmbH]                                                            
  Markus Bursch, Miquel Garcia-Rates, Christoph Riplinger, Bernardo de Souza, Georgi L. Stoychev 
                                                                 
  APM, Basis sets (HGBS, AHGBS, def-TZVP (Ac-Lr), def2-XVPD (La-Lu)), CI-OPT, improved COSX, DLPNO-Multilevel,           
  DOCKER, DRACO, updates on ESD, GOAT, IRC, LR-CPCM, MBIS, meta-GGA TD-DFT gradient, ML-optimized integration grids, 
  MM, NACMEs, nearIR, NEB, NEB-TS, NL-DFT gradient (VV10), 2- and 3-layer-ONIOM, interface openCOSMO-RS, QMMM,   
  Crystal-QMMM, SF, symmetry and pop. for TD-DFT, r2SCAN hybrids, SOLVATOR                                   
                                                                         
[Other institutions]                                                     
  V. Asgeirsson          : NEB                                           
  Christoph Bannwarth    : sTDA-DFT, sTD-DFT, PBEh-3c, B97-3c, D3        
  Sebastian Ehlert       : rSCAN, r2SCAN, r2SCAN-3c, D4, dhf basis sets  
  Marvin Friede          : D4 for Fr, Ra, Ac-Lr                          
  Lars Goerigk           : TD-DFT with DH, B97 family of functionals     
  Stefan Grimme          : VdW corrections, initial TS optimization, DFT functionals, gCP, sTDA/sTD-DF 
  Waldemar Hujo          : DFT-NL                                        
  H. Jonsson             : NEB                                           
  Holger Kruse           : gCP                                           
  Marcel Mueller         : wB97X-3c, vDZP basis set                      
  Hagen Neugebauer       : wr2SCAN                                       
  Tobias Risthaus        : range-separated hybrid DFT                    
  Lukas Wittmann         : regularized MP2, r2SCAN double-hybrids, wr2SCAN        
                                                                         
We gratefully acknowledge several colleagues who have allowed us to      
interface, adapt or use parts of their codes:                            
  Ed Valeev, F. Pavosevic, A. Kumar             : LibInt (2-el integral package), F12 methods 
  Garnet Chan, S. Sharma, J. Yang, R. Olivares  : DMRG                   
  Ulf Ekstrom                                   : XCFun DFT Library      
  Mihaly Kallay                                 : mrcc  (arbitrary order and MRCC methods)
  Frank Weinhold                                : gennbo (NPA and NBO analysis)           
  Simon Mueller                                 : openCOSMO-RS                            
  Christopher J. Cramer and Donald G. Truhlar   : smd solvation model                     
  S Lehtola, MJT Oliveira, MAL Marques          : LibXC Library                           
  Liviu Ungur et al                             : ANISO software                          


 Your calculation uses the libint2 library for the computation of 2-el integrals
 For citations please refer to: http://libint.valeyev.net

 Your ORCA version has been built with support for libXC version: 6.2.2
 For citations please refer to: https://libxc.gitlab.io

 This ORCA versions uses:
   CBLAS   interface :  Fast vector & matrix operations
   LAPACKE interface :  Fast linear algebra routines
   SCALAPACK package :  Parallel linear algebra routines
   Shared memory     :  Shared parallel matrices
   BLAS/LAPACK       :  OpenBLAS 0.3.27  USE64BITINT DYNAMIC_ARCH NO_AFFINITY Haswell SINGLE_THREADED
        Core in use  :  Haswell
   Copyright (c) 2011-2014, The OpenBLAS Project


NOTE: MaxCore=8000 MB was set to SCF,MP2,MDCI,CIPSI,MRCI and CIS
      => If you want to overwrite this, your respective input block should be placed after the MaxCore statement
================================================================================

----- Orbital basis set information -----
Your calculation utilizes the basis: 6-31+G**
   H-He, Li-Ne : W. J. Hehre, R. Ditchfield and J.A. Pople, J. Chem. Phys. 56, 2257 (1972).
                 Note: He and Ne are unpublished basis sets taken from the Gaussian program.
                 Note: Li and B from J. D. Dill and J. A. Pople, J. Chem. Phys. 62, 2921 (1975).
   Na - Ar     : M. M. Francl, W. J. Pietro, W. J. Hehre, J. S. Binkley, M. S. Gordon, 
                 D. J. DeFrees and J. A. Pople, J. Chem. Phys. 77, 3654 (1982).
   K - Zn      : V. A. Rassolov, J. A. Pople, M. A. Ratner, and T. L. Windus, J. Chem. Phys. 109, 1223 (1998).
   Additional Pol./Diff. from the 6-311G equivalent.

----- AuxC basis set information -----
Your calculation utilizes the auxiliary basis: def2-SVP/C
  H-La, Hf-Rn : A. Hellweg, C. Hattig, S. Hofener and W. Klopper, Theor. Chem. Acc. 117, 587 (2007).
        Ce-Lu : J. Chmela and M. E. Harding, Mol. Phys. (2018).

================================================================================
                                        WARNINGS
                       Please study these warnings very carefully!
================================================================================

WARNING: Old DensityContainer found on disk!
         Will remove this file - 
         If you want to keep old densities, please start your calculation with a different basename. 


WARNING: your system is open-shell and RHF/RKS was chosen
  ===> : WILL SWITCH to UHF/UKS

NOTE: KCOpt==AO/AOBLAs is not implemented for UHF based MDCI. Switching to AOX.
      Do not worry about the results, this is just for your information

WARNING: No MP2 level density has been requested!
         To calculate MP2 level properties use
         %mp2 Density relaxed end
         or
         %mp2 Density unrelaxed end

WARNING: Post HF methods need fully converged wavefunctions
  ===> : Setting SCFConvForced true
         You can overwrite this default with %scf ConvForced false 


WARNING: MDCI localization with Augmented Hessian Foster-Boys
  ===> : Switching off randomization!

WARNING: UseCISUpdate is  only available for RHF calculations...
  ===> : Setting UseCISUpdate = false 

================================================================================
                                       INPUT FILE
================================================================================
NAME = /home/ubuntu/Shiwei/qm9_reaction_eng/qm9_orca_work/qm9_orca_work_elem/c/c_mp2_631+gss.inp
|  1> ! RI-MP2 6-31+G** def2-SVP/C
|  2> %maxcore 8000
|  3> 
|  4> %method
|  5> FrozenCore FC_ELECTRONS
|  6> end
|  7> 
|  8> %mdci
|  9>   TCutPairs  1e-6
| 10>   printlevel 4
| 11> end
| 12> 
| 13> %loc
| 14> LocMet AHFB
| 15> OCC true
| 16> end
| 17> 
| 18> *xyz 0 3
| 19> C 0.0 0.0 0.0
| 20> *
| 21> 
| 22>                          ****END OF INPUT****
================================================================================

                       ****************************
                       * Single Point Calculation *
                       ****************************

---------------------------------
CARTESIAN COORDINATES (ANGSTROEM)
---------------------------------
  C      0.000000    0.000000    0.000000

----------------------------
CARTESIAN COORDINATES (A.U.)
----------------------------
  NO LB      ZA    FRAG     MASS         X           Y           Z
   0 C     6.0000    0    12.011    0.000000    0.000000    0.000000

--------------------------------
INTERNAL COORDINATES (ANGSTROEM)
--------------------------------
 C      0   0   0     0.000000000000     0.00000000     0.00000000

---------------------------
INTERNAL COORDINATES (A.U.)
---------------------------
 C      0   0   0     0.000000000000     0.00000000     0.00000000

---------------------
BASIS SET INFORMATION
---------------------
There are 1 groups of distinct atoms

 Group   1 Type C   : 11s5p1d contracted to 4s3p1d pattern {6311/311/1}

Atom   0C    basis set group =>   1
---------------------------------
AUXILIARY/C BASIS SET INFORMATION
---------------------------------
There are 1 groups of distinct atoms

 Group   1 Type C   : 8s6p5d3f contracted to 6s5p4d1f pattern {311111/21111/2111/3}

Atom   0C    basis set group =>   1

Checking for AutoStart:
The File: /home/ubuntu/Shiwei/qm9_reaction_eng/qm9_orca_work/qm9_orca_work_elem/c/c_mp2_631+gss.gbw exists
Trying to determine its content:
     ... Fine, the file contains calculation information
     ... Fine, the calculation information was read
     ... Fine, the file contains a basis set
     ... Fine, the basis set was read
     ... Fine, the file contains a geometry
     ... Fine, the geometry was read
     ... Fine, the file contains a set of orbitals
     ... Fine, the orbitals can be read
     => possible old guess file was deleted
     => GBW file was renamed to GES file
     => GES file is set as startup file
     => Guess is set to MORead
     ... now leaving AutoStart

------------------------------------------------------------------------------
                             ORCA STARTUP CALCULATIONS
------------------------------------------------------------------------------
------------------------------------------------------------------------------
                   ___                                                        
                  /   \      - P O W E R E D   B Y -                         
                 /     \                                                     
                 |  |  |   _    _      __       _____    __    __             
                 |  |  |  | |  | |    /  \     |  _  \  |  |  /  |          
                  \  \/   | |  | |   /    \    | | | |  |  | /  /          
                 / \  \   | |__| |  /  /\  \   | |_| |  |  |/  /          
                |  |  |   |  __  | /  /__\  \  |    /   |      \           
                |  |  |   | |  | | |   __   |  |    \   |  |\   \          
                \     /   | |  | | |  |  |  |  | |\  \  |  | \   \       
                 \___/    |_|  |_| |__|  |__|  |_| \__\ |__|  \__/        
                                                                              
                      - O R C A' S   B I G   F R I E N D -                    
                                      &                                       
                       - I N T E G R A L  F E E D E R -                       
                                                                              
 v1 FN, 2020, v2 2021, v3 2022-2024                                           
------------------------------------------------------------------------------


----------------------
SHARK INTEGRAL PACKAGE
----------------------

Number of atoms                             ...      1
Number of basis functions                   ...     18
Number of shells                            ...      8
Maximum angular momentum                    ...      2
Integral batch strategy                     ... SHARK/LIBINT Hybrid
RI-J (if used) integral strategy            ... SPLIT-RIJ (Revised 2003 algorithm where possible)
Printlevel                                  ...      1
Contraction scheme used                     ... SEGMENTED contraction
Prescreening option                         ... SCHWARTZ
   Thresh                                   ... 1.000e-10
   Tcut                                     ... 1.000e-11
   Tpresel                                  ... 1.000e-11 
Coulomb Range Separation                    ... NOT USED
Exchange Range Separation                   ... NOT USED
Multipole approximations                    ... NOT USED
Finite Nucleus Model                        ... NOT USED
CABS basis                                  ... NOT available
Auxiliary Coulomb fitting basis             ... NOT available
Auxiliary J/K fitting basis                 ... NOT available
Auxiliary Correlation fitting basis         ... AVAILABLE
   # of basis functions in Aux-C            ...     48
   # of shells in Aux-C                     ...     16
   Maximum angular momentum in Aux-C        ...      3
Auxiliary 'external' fitting basis          ... NOT available

Checking pre-screening integrals            ... done (  0.0 sec) Dimension = 8
Check shell pair data                       ... done (  0.0 sec)
Shell pair information
Shell pair cut-off parameter TPreSel        ...   1.0e-11
Total number of shell pairs                 ...        36
Shell pairs after pre-screening             ...        36
Total number of primitive shell pairs       ...       174
Primitive shell pairs kept                  ...       174
          la=0 lb=0:     10 shell pairs
          la=1 lb=0:     12 shell pairs
          la=1 lb=1:      6 shell pairs
          la=2 lb=0:      4 shell pairs
          la=2 lb=1:      3 shell pairs
          la=2 lb=2:      1 shell pairs

Calculating one electron integrals          ... done (  0.0 sec)
Calculating RI/C V-Matrix + Cholesky decomp.... done (  0.0 sec)
Calculating Nuclear repulsion               ... done (  0.0 sec) ENN=      0.000000000000 Eh

Diagonalization of the overlap matrix:
Smallest eigenvalue                        ... 8.957e-02
Time for diagonalization                   ...    0.000 sec
Threshold for overlap eigenvalues          ... 1.000e-07
Number of eigenvalues below threshold      ... 0
Time for construction of square roots      ...    0.000 sec
Total time needed                          ...    0.001 sec

-------------------
DFT GRID GENERATION
-------------------

General Integration Accuracy     IntAcc      ... 4.388
Radial Grid Type                 RadialGrid  ... OptM3 with GC (2021)
Angular Grid (max. ang.)         AngularGrid ... 4 (Lebedev-302)
Angular grid pruning method      GridPruning ... 4 (adaptive)
Weight generation scheme         WeightScheme... mBecke (2022)
Basis function cutoff            BFCut       ... 1.0000e-10
Integration weight cutoff        WCut        ... 1.0000e-14
Partially contracted basis set               ... off
Rotationally invariant grid construction     ... off
Angular grids for H and He will be reduced by one unit
Diffuse basis detected: some atoms will have their outermost
                        angular grid increased by 1.

Total number of grid points                  ...     6460
Total number of batches                      ...      101
Average number of points per batch           ...       63
Average number of grid points per atom       ...     6460
Initializing property integral containers    ... done (  0.0 sec)

SHARK setup successfully completed in   0.0 seconds

Maximum memory used throughout the entire STARTUP-calculation: 8.2 MB
-------------------------------------------------------------------------------
                                 ORCA GUESS
                   Start orbitals & Density for SCF / CASSCF
-------------------------------------------------------------------------------

------------
SCF SETTINGS
------------
Hamiltonian:
 Ab initio Hamiltonian  Method          .... Hartree-Fock(GTOs)


General Settings:
 Integral files         IntName         .... /home/ubuntu/Shiwei/qm9_reaction_eng/qm9_orca_work/qm9_orca_work_elem/c/c_mp2_631+gss
 Hartree-Fock type      HFTyp           .... UHF
 Total Charge           Charge          ....    0
 Multiplicity           Mult            ....    3
 Number of Electrons    NEL             ....    6
 Basis Dimension        Dim             ....   18
 Nuclear Repulsion      ENuc            ....      0.0000000000 Eh

Convergence Acceleration:
 AO-DIIS                CNVDIIS         .... on
   Start iteration      DIISMaxIt       ....    12
   Startup error        DIISStart       ....  0.200000
   # of expansion vecs  DIISMaxEq       ....     5
   Bias factor          DIISBfac        ....   1.050
   Max. coefficient     DIISMaxC        ....  10.000
 MO-DIIS                CNVKDIIS        .... off
 Trust-Rad. Augm. Hess. CNVTRAH         .... auto
   Auto Start mean grad. ratio tolernc. ....  1.125000
   Auto Start start iteration           ....     1
   Auto Start num. interpolation iter.  ....    10
   Max. Number of Micro iterations      ....    24
   Max. Number of Macro iterations      .... Maxiter - #DIIS iter
   Number of Davidson start vectors     ....     2
   Converg. threshold    (grad. norm)   ....   5.000e-05
   Grad. Scal. Fac. for Micro threshold ....   0.100
   Minimum threshold for Micro iter.    ....   1.000e-02
   NR start threshold (gradient norm)   ....   1.000e-04
   Initial trust radius                 ....   0.400
   Minimum AH scaling param. (alpha)    ....   1.000
   Maximum AH scaling param. (alpha)    .... 1000.000
   Quad. conv. algorithm                .... NR
   White noise on init. David. guess    .... on
   Maximum white noise                  ....   0.010
   Pseudo random numbers                .... off
   Inactive MOs                         .... canonical
   Orbital update algorithm             .... Taylor
   Preconditioner                       .... Diag
   Full preconditioner red. dimension   ....   250
 SOSCF                  CNVSOSCF        .... on
   Start iteration      SOSCFMaxIt      ....   150
   Startup grad/error   SOSCFStart      ....  0.003300
   Hessian update       SOSCFHessUp     .... L-BFGS
 Level Shifting         CNVShift        .... on
   Level shift para.    LevelShift      ....    0.2500
   Turn off err/grad.   ShiftErr        ....    0.0010
 Zerner damping         CNVZerner       .... off
 Static damping         CNVDamp         .... on
   Fraction old density DampFac         ....    0.7000
   Max. Damping (<1)    DampMax         ....    0.9800
   Min. Damping (>=0)   DampMin         ....    0.0000
   Turn off err/grad.   DampErr         ....    0.1000

SCF Procedure:
 Maximum # iterations   MaxIter         ....   125
 SCF integral mode      SCFMode         .... Direct
   Integral package                     .... SHARK and LIBINT hybrid scheme
 Reset frequency        DirectResetFreq ....    20
 Integral Threshold     Thresh          ....  1.000e-10 Eh
 Primitive CutOff       TCut            ....  1.000e-11 Eh

Convergence Tolerance:
 Convergence Check Mode ConvCheckMode   .... Total+1el-Energy
 Convergence forced     ConvForced      .... 1
 Energy Change          TolE            ....  1.000e-06 Eh
 1-El. energy change                    ....  1.000e-03 Eh
 Orbital Gradient       TolG            ....  5.000e-05
 Orbital Rotation angle TolX            ....  5.000e-05
 DIIS Error             TolErr          ....  1.000e-06

---------------------
INITIAL GUESS: MOREAD
---------------------
Guess MOs are being read from file: /home/ubuntu/Shiwei/qm9_reaction_eng/qm9_orca_work/qm9_orca_work_elem/c/c_mp2_631+gss.ges
Input Geometry matches current geometry (good)
Input basis set matches current basis set (good)
MOs were renormalized
MOs were reorthogonalized (Cholesky)
                      ------------------
                      INITIAL GUESS DONE (   0.0 sec)
                      ------------------
             **** ENERGY FILE WAS UPDATED (/home/ubuntu/Shiwei/qm9_reaction_eng/qm9_orca_work/qm9_orca_work_elem/c/c_mp2_631+gss.en.tmp) ****
Finished Guess after   0.0 sec
Maximum memory used throughout the entire GUESS-calculation: 4.1 MB

-------------------------------------------------------------------------------------------
                                      ORCA LEAN-SCF
                              memory conserving SCF solver
-------------------------------------------------------------------------------------------

----------------------------------------D-I-I-S--------------------------------------------
Iteration    Energy (Eh)           Delta-E    RMSDP     MaxDP     DIISErr   Damp  Time(sec)
-------------------------------------------------------------------------------------------
               ***  Starting incremental Fock matrix formation  ***
                              *** Initializing SOSCF ***
---------------------------------------S-O-S-C-F--------------------------------------
Iteration    Energy (Eh)           Delta-E    RMSDP     MaxDP     MaxGrad    Time(sec)
--------------------------------------------------------------------------------------
    1    -37.6835786917462841     0.00e+00  1.37e-06  1.17e-05  7.19e-06     0.0
               *** Restarting incremental Fock matrix formation ***
    2    -37.6835786950170260    -3.27e-09  4.31e-07  3.43e-06  2.32e-05     0.0
    3    -37.6835786952886167    -2.72e-10  1.49e-07  9.57e-07  4.89e-06     0.0
                 **** Energy Check signals convergence ****

               *****************************************************
               *                     SUCCESS                       *
               *           SCF CONVERGED AFTER   3 CYCLES          *
               *****************************************************

             **** ENERGY FILE WAS UPDATED (/home/ubuntu/Shiwei/qm9_reaction_eng/qm9_orca_work/qm9_orca_work_elem/c/c_mp2_631+gss.en.tmp) ****

----------------
TOTAL SCF ENERGY
----------------

Total Energy       :        -37.68357869528862 Eh           -1025.42231 eV

Components:
Nuclear Repulsion  :          0.00000000000000 Eh               0.00000 eV
Electronic Energy  :        -37.68357869528862 Eh           -1025.42231 eV
One Electron Energy:        -50.42817792172110 Eh           -1372.22048 eV
Two Electron Energy:         12.74459922643248 Eh             346.79818 eV

Virial components:
Potential Energy   :        -75.34999977461946 Eh           -2050.37773 eV
Kinetic Energy     :         37.66642107933085 Eh            1024.95543 eV
Virial Ratio       :          2.00045551489805

---------------
SCF CONVERGENCE
---------------

  Last Energy change         ...    2.7159e-10  Tolerance :   1.0000e-06
  Last MAX-Density change    ...    9.5674e-07  Tolerance :   1.0000e-05
  Last RMS-Density change    ...    1.4940e-07  Tolerance :   1.0000e-06
  Last DIIS Error            ...    6.0401e-05  Tolerance :   1.0000e-06
  Last Orbital Gradient      ...    4.8861e-06  Tolerance :   5.0000e-05
  Last Orbital Rotation      ...    2.3153e-06  Tolerance :   5.0000e-05


----------------------
UHF SPIN CONTAMINATION
----------------------

Expectation value of <S**2>     :     2.006524
Ideal value S*(S+1) for S=1.0   :     2.000000
Deviation                       :     0.006524

----------------
ORBITAL ENERGIES
----------------
                 SPIN UP ORBITALS
  NO   OCC          E(Eh)            E(eV) 
   0   1.0000     -11.350047      -308.8505 
   1   1.0000      -0.828312       -22.5395 
   2   1.0000      -0.436387       -11.8747 
   3   1.0000      -0.436387       -11.8747 
   4   0.0000       0.017243         0.4692 
   5   0.0000       0.105166         2.8617 
   6   0.0000       0.127773         3.4769 
   7   0.0000       0.127773         3.4769 
   8   0.0000       0.165290         4.4978 
   9   0.0000       0.825240        22.4559 
  10   0.0000       0.825240        22.4559 
  11   0.0000       0.890932        24.2435 
  12   0.0000       0.976688        26.5770 
  13   0.0000       1.892375        51.4941 
  14   0.0000       1.892375        51.4941 

                 SPIN DOWN ORBITALS
  NO   OCC          E(Eh)            E(eV) 
   0   1.0000     -11.304435      -307.6093 
   1   1.0000      -0.583411       -15.8754 
   2   0.0000       0.043037         1.1711 
   3   0.0000       0.071170         1.9366 
   4   0.0000       0.071170         1.9366 
   5   0.0000       0.119857         3.2615 
   6   0.0000       0.187924         5.1137 
   7   0.0000       0.229289         6.2393 
   8   0.0000       0.229289         6.2393 
   9   0.0000       0.919197        25.0126 
  10   0.0000       0.968585        26.3565 
  11   0.0000       0.968585        26.3565 
  12   0.0000       1.042655        28.3721 
*Only the first 10 virtual orbitals were printed.

                    ********************************
                    * MULLIKEN POPULATION ANALYSIS *
                    ********************************

--------------------------------------------
MULLIKEN ATOMIC CHARGES AND SPIN POPULATIONS
--------------------------------------------
   0 C :   -0.000000    2.000000
Sum of atomic charges         :   -0.0000000
Sum of atomic spin populations:    2.0000000

-----------------------------------------------------
MULLIKEN REDUCED ORBITAL CHARGES AND SPIN POPULATIONS
-----------------------------------------------------
CHARGE
  0 C s       :     3.998700  s :     3.998700
      pz      :     0.274162  p :     2.000000
      px      :     0.974974
      py      :     0.750864
      dz2     :     0.000451  d :     0.001300
      dxz     :     0.000071
      dyz     :     0.000705
      dx2y2   :     0.000049
      dxy     :     0.000024


SPIN
  0 C s       :    -0.000111  s :    -0.000111
      pz      :     0.274162  p :     2.000000
      px      :     0.974974
      py      :     0.750864
      dz2     :     0.000039  d :     0.000111
      dxz     :     0.000006
      dyz     :     0.000060
      dx2y2   :     0.000004
      dxy     :     0.000002



                     *******************************
                     * LOEWDIN POPULATION ANALYSIS *
                     *******************************

-------------------------------------------
LOEWDIN ATOMIC CHARGES AND SPIN POPULATIONS
-------------------------------------------
   0 C :   -0.000000    2.000000

----------------------------------------------------
LOEWDIN REDUCED ORBITAL CHARGES AND SPIN POPULATIONS
----------------------------------------------------
CHARGE
  0 C s       :     3.998700  s :     3.998700
      pz      :     0.274162  p :     2.000000
      px      :     0.974974
      py      :     0.750864
      dz2     :     0.000451  d :     0.001300
      dxz     :     0.000071
      dyz     :     0.000705
      dx2y2   :     0.000049
      dxy     :     0.000024


SPIN
  0 C s       :    -0.000111  s :    -0.000111
      pz      :     0.274162  p :     2.000000
      px      :     0.974974
      py      :     0.750864
      dz2     :     0.000039  d :     0.000111
      dxz     :     0.000006
      dyz     :     0.000060
      dx2y2   :     0.000004
      dxy     :     0.000002



                      *****************************
                      * MAYER POPULATION ANALYSIS *
                      *****************************

  NA   - Mulliken gross atomic population
  ZA   - Total nuclear charge
  QA   - Mulliken gross atomic charge
  VA   - Mayer's total valence
  BVA  - Mayer's bonded valence
  FA   - Mayer's free valence

  ATOM       NA         ZA         QA         VA         BVA        FA
  0 C      6.0000     6.0000    -0.0000     2.0130     0.0000     2.0130

  Mayer bond orders larger than 0.100000
  => no bond orders to print

-------
TIMINGS
-------

Total SCF time: 0 days 0 hours 0 min 0 sec 

Total time                  ....       0.034 sec
Sum of individual times     ....       0.021 sec  ( 62.7%)

SCF preparation             ....       0.014 sec  ( 42.5%)
Fock matrix formation       ....       0.004 sec  ( 11.0%)
  Startup                   ....       0.000 sec  (  5.1% of F)
  Coulomb+Exchange Fock     ....       0.003 sec  ( 79.3% of F)
Diagonalization             ....       0.000 sec  (  0.0%)
Density matrix formation    ....       0.001 sec  (  1.7%)
Total Energy calculation    ....       0.000 sec  (  0.3%)
Population analysis         ....       0.001 sec  (  1.7%)
Orbital Transformation      ....       0.001 sec  (  2.1%)
Orbital Orthonormalization  ....       0.000 sec  (  0.0%)
DIIS solution               ....       0.000 sec  (  0.7%)
SOSCF solution              ....       0.001 sec  (  2.5%)
Finished LeanSCF after   0.0 sec

Maximum memory used throughout the entire LEANSCF-calculation: 7.6 MB

------------------------------------------------------------------------------
                         ORCA PROPERTY INTEGRAL CALCULATIONS
------------------------------------------------------------------------------

GBWName                                   ... /home/ubuntu/Shiwei/qm9_reaction_eng/qm9_orca_work/qm9_orca_work_elem/c/c_mp2_631+gss.gbw
Number of atoms                           ...      1
Number of basis functions                 ...     18
Max core memory                           ...   8000 MB

Dipole integrals                          ... YES
Quadrupole integrals                      ...  NO
Linear momentum integrals                 ... YES
Angular momentum integrals                ... YES
Higher moments length integrals           ...  NO
Higher moments velocity integrals         ...  NO
Kinetic energy integrals                  ...  NO
GIAO right hand sides                     ...  NO
GIAO dipole derivative integrals          ...  NO
SOC integrals                             ...  NO
EPR diamagnetic integrals (GIAO)          ...  NO
EPR gauge integrals                       ...  NO
Field gradient integrals                  ...  NO (   0 nuclei)
Spin-dipole/Fermi contact integrals       ...  NO (   0 nuclei)
Contact density integrals                 ...  NO (   0 nuclei)
Nucleus-orbit integrals                   ...  NO (   0 nuclei)
Geometric perturbations                   ...  NO (   1 nuclei)

Choice of electric origin   ... Center of mass
Position of electric origin ... (  0.0000,  0.0000,  0.0000) 
Choice of magnetic origin   ... GIAO
Position of magnetic origin ... (  0.0000,  0.0000,  0.0000) 

Calculating integrals                     ... Electric Dipole (Length)     done (  0.0 sec)
Calculating integrals                     ... Linear Momentum              done (  0.0 sec)
Calculating integrals                     ... Angular Momentum  (ElOri)    done (  0.0 sec)

Property integrals calculated in   0.0 sec

Maximum memory used throughout the entire PROPINT-calculation: 4.2 MB
------------------------------------------------------------------------------
                           ORCA ORBITAL LOCALIZATION
------------------------------------------------------------------------------

Input orbitals are from                  ... /home/ubuntu/Shiwei/qm9_reaction_eng/qm9_orca_work/qm9_orca_work_elem/c/c_mp2_631+gss.gbw
Output orbitals are to                   ... /home/ubuntu/Shiwei/qm9_reaction_eng/qm9_orca_work/qm9_orca_work_elem/c/c_mp2_631+gss.loc
Max. number of iterations                ... 128
Localizations seeded randomly            ... on
Convergence tolerance                    ... 1.000e-06
Threshold for strong local MOs           ... 9.500e-01
Threshold for bond MOs                   ... 8.500e-01
Operator                                 ... 0
Orbital range for localization           ... 1 to 3
Localization criterion                   ... FOSTER-BOYS (AUGMENTED HESSIAN)
Doing the dipole integrals     ... o.k.
Initial value of the localization sum :     0.000000
ITERATION   0 : L=    2.1463362250 DL=  2.15e+00 (AVERGE_DL)=    0.8458400607 
ITERATION   1 : L=    2.2871895397 DL=  1.41e-01 (AVERGE_DL)=    0.2166820365 
ITERATION   2 : L=    2.2893903728 DL=  2.20e-03 (AVERGE_DL)=    0.0270852546 
ITERATION   3 : L=    2.2894247608 DL=  3.44e-05 (AVERGE_DL)=    0.0033856568 
ITERATION   4 : L=    2.2894252981 DL=  5.37e-07 (AVERGE_DL)=    0.0004232071 
LOCALIZATION SUM CONVERGED

------------------------------------------------------
AUGMENTED HESSIAN OPTIMIZATION OF FOSTER-BOYS ORBITALS
------------------------------------------------------

Spin operator:           0
Orbital window:          1 to 3
Number of iterations:    128
Gradient tolerance:      1.000e-06
Number of pairs:         3
Davidson threshold:      2000
Diagonalization method:  LAPACK
Iter:    0   L: 2.2894252981   Grad. norm: 3.952435e-04
   *** Likely close to a maximum now. ***
       Augmented Hessian eigenvalues:  1.71e-08  4.27e-09 -9.16e+00 -9.16e+00
Iter:    1   L: 2.2894253066   Grad. norm: 1.808729e-08
LOCALIZATION HAS CONVERGED.

Eigenvalues of the Hessian:
  0  8.882e-16
  1 -9.158e+00
  2 -9.158e+00


--------------------------------------------------------------------------------
                    LOCALIZED MOLECULAR ORBITAL COMPOSITIONS
--------------------------------------------------------------------------------

The Mulliken populations for each LMO on each atom are computed
The LMO`s will be ordered according to atom index and type
  (A) Strongly localized MO`s have populations of >=0.950 on one atom
  (B) Two center bond orbitals have populations of >=0.850 on two atoms
  (C) Other MO`s are considered to be `delocalized`

FOUND  -   3 strongly local MO`s
       -   0 two center bond MO`s
       -   0 significantly delocalized MO`s

Rather strongly localized orbitals:
MO   3:   0C  -   1.000000
MO   2:   0C  -   1.000000
MO   1:   0C  -   1.000000
Localized MO's were stored in: /home/ubuntu/Shiwei/qm9_reaction_eng/qm9_orca_work/qm9_orca_work_elem/c/c_mp2_631+gss.loc
------------------------------------------------------------------------------
                           ORCA ORBITAL LOCALIZATION
------------------------------------------------------------------------------

Input orbitals are from                  ... /home/ubuntu/Shiwei/qm9_reaction_eng/qm9_orca_work/qm9_orca_work_elem/c/c_mp2_631+gss.loc
Output orbitals are to                   ... /home/ubuntu/Shiwei/qm9_reaction_eng/qm9_orca_work/qm9_orca_work_elem/c/c_mp2_631+gss.loc
Max. number of iterations                ... 128
Localizations seeded randomly            ... on
Convergence tolerance                    ... 1.000e-06
Threshold for strong local MOs           ... 9.500e-01
Threshold for bond MOs                   ... 8.500e-01
Operator                                 ... 1
Orbital range for localization           ... 1 to 1
Localization criterion                   ... FOSTER-BOYS (AUGMENTED HESSIAN)
Doing the dipole integrals     ... o.k.

ORCA_LOC: ONLY ONE ORBITAL - SKIPPING LOCALIZATION


--------------------------------------------------------------------------------
                    LOCALIZED MOLECULAR ORBITAL COMPOSITIONS
--------------------------------------------------------------------------------

The Mulliken populations for each LMO on each atom are computed
The LMO`s will be ordered according to atom index and type
  (A) Strongly localized MO`s have populations of >=0.950 on one atom
  (B) Two center bond orbitals have populations of >=0.850 on two atoms
  (C) Other MO`s are considered to be `delocalized`

FOUND  -   1 strongly local MO`s
       -   0 two center bond MO`s
       -   0 significantly delocalized MO`s

Rather strongly localized orbitals:
MO   1:   0C  -   1.000000
Localized MO's were stored in: /home/ubuntu/Shiwei/qm9_reaction_eng/qm9_orca_work/qm9_orca_work_elem/c/c_mp2_631+gss.loc

------------------------------------------------------------------------------
                                ORCA  MP2 
------------------------------------------------------------------------------

Freezing NCore=2 chemical core electrons

-------------
RI-MP2 ENERGY
-------------
Dimension of the orbital basis            ...   18
Dimension of the AuxC basis               ...   48
Memory devoted to MP2                     ... 8000 MB   
Data format for matrix containers         ... DOUBLE
Compression type for matrix containers    ... UNCOMPRESSED

-----------------------
SHARK RI TRANSFORMATION
-----------------------

Number of basis functions                ...     18
Number of aux functions                  ...     48
Number of operators                      ...      2
Generation of IJK                        ... NO
Generation of IAK                        ... YES
Generation of ABK                        ... NO
Orbital Range Operator  0:    1-   3 to    4-  17

Orbital Range Operator  1:    1-   1 to    2-  17

Aux basis identifier                     ...   AUXC
Contraction scheme used                  ... SEGMENTED
Do orthogonalization                     ... YES
All operator combinations                ... NO
Transpose (ia|K)                         ... NO
Integral generator used                  ... LIBINT
Starting integral generation + trafo... 
Half trafo (segmented) done. Total time =  0.0 sec. integrals=  0.0 sec trafo=  0.0 sec
Integral generation and half transformation done (  0.0 sec)

Reading or making V^(-1/2)          ... done (  0.0 sec)
Sorting IAK integrals               ... done (  0.0 sec)
Sorting IAK integrals               ... done (  0.0 sec)

SHARK RI integral transformation done. Total time =  0.0 sec.

Opening buffers                              ... done

Starting loop over batches of integrals:

Operator 0  - window                       ... (  1-  3)x(  4- 17)
Operator 0  - Memory available             ...  8000 MB
Operator 0  - Memory needed per MO         ...   0.0 MB
Operator 0  - Number of orbitals per batch ... 3
Operator 0  - Number of batches            ... 1

OPERATOR  0   PASS   0:  MOs     1 ...    3
  Reading integrals       ... ok
  Internal MO   3

Operator 1  - window                       ... (  1-  1)x(  2- 17)
Operator 1  - Memory available             ...  8000 MB
Operator 1  - Memory needed per MO         ...   0.0 MB
Operator 1  - Number of orbitals per batch ... 1
Operator 1  - Number of batches            ... 1

OPERATOR  1   PASS   0:  MOs     1 ...    1
  Reading integrals       ... ok
Time spent in pair loops =     0.000 sec
Deleting buffers (Ka|jb) ...done

Correlation energy components}
 E2 for alpha/alpha pairs :     -0.009267051 Eh
 E2 for beta/beta   pairs :      0.000000000 Eh
 E2 for alpha/beta  pairs :     -0.042269061 Eh


-----------------------------------------------
 RI-MP2 CORRELATION ENERGY:     -0.051536112 Eh
-----------------------------------------------


-------
TIMINGS
-------

Total time                :    0.029 sec
Integral trafo            :    0.029 sec ( 98.5%)


---------------------------------------
MP2 TOTAL ENERGY:      -37.735114807 Eh
---------------------------------------

Maximum memory used throughout the entire MP2-calculation: 10.2 MB


--------------------------------------------------------------------------------
                             ORCA-MATRIX DRIVEN CI
--------------------------------------------------------------------------------

--------------------------------
AUTOMATIC CHOICE OF INCORE LEVEL
--------------------------------

Memory available                           ...   4000.00 MB
Memory needed for S+T                      ...      0.02 MB
Memory needed for J+K                      ...      0.06 MB
Memory needed for DIIS                     ...      0.25 MB
Memory needed for 3-ext                    ...      0.06 MB
Memory needed for 4-ext                    ...      0.16 MB
Memory needed for triples                  ...      0.00 MB
 -> Final InCoreLevel    ... 5

Wavefunction type
-----------------
Correlation treatment                      ...     QCISD     
Single excitations                         ... ON
Orbital optimization                       ... OFF
Calculation of Z vector                    ... OFF
Calculation of Brueckner orbitals          ... OFF
Perturbative triple excitations            ... OFF
Calculation of F12 correction              ... OFF
Frozen core treatment                      ... chemical core (2 el)
Reference Wavefunction                     ... UHF
  Alpha-MOs occ    :     1 ...    3 (  3 MO's/  3 electrons)
  Beta-MOs occ     :     1 ...    1 (  1 MO's/  1 electrons)
  Alpha-MOs virt   :     4 ...   17 ( 14 MO's              )
  Beta-MOs virt    :     2 ...   17 ( 16 MO's              )
Number of AO's                             ...     18
Number of electrons                        ...      6
Number of correlated electrons             ...      4

Algorithmic settings
--------------------
Integral transformation                    ... Separate K and J transformations
K(C) Formation                             ... AO-EXCHANGE STORED
Maximum number of iterations               ...        50
Convergence tolerance (max. residuum)      ... 2.500e-05
Level shift for amplitude update           ... 2.000e-01
Maximum number of DIIS vectors             ...         7
DIIS turned on at iteration                ...         0
Damping before turning on DIIS             ...     0.500
Damping after turning on DIIS              ...     0.000
Pair specific amplitude update             ... OFF
Natural orbital iterations                 ... OFF
Perturbative natural orbital generation    ... OFF
Printlevel                                 ... 4

Memory handling:
----------------
Maximum memory for working arrays          ...   4000 MB
Data storage in matrix containers          ... UNCOMPRESSED
Data type for integral storage             ... DOUBLE
In-Core Storage of quantities:
   Amplitudes+Sigma Vector      ... YES
   J+K operators                ... YES
   DIIS vectors                 ... YES
   3-external integrals         ... YES
   4-external integrals         ... YES


Initializing the integral package          ... done
Localizing the valence orbitals
Localizing the valence orbitals
------------------------------------------------------------------------------
                           ORCA ORBITAL LOCALIZATION
------------------------------------------------------------------------------

Input orbitals are from                  ... /home/ubuntu/Shiwei/qm9_reaction_eng/qm9_orca_work/qm9_orca_work_elem/c/c_mp2_631+gss.gbw
Output orbitals are to                   ... /home/ubuntu/Shiwei/qm9_reaction_eng/qm9_orca_work/qm9_orca_work_elem/c/c_mp2_631+gss.loc
Max. number of iterations                ... 128
Localizations seeded randomly            ... off
Convergence tolerance                    ... 1.000e-06
Threshold for strong local MOs           ... 9.500e-01
Threshold for bond MOs                   ... 8.500e-01
Operator                                 ... 0
Orbital range for localization           ... 1 to 3
Localization criterion                   ... FOSTER-BOYS (AUGMENTED HESSIAN)
Doing the dipole integrals     ... o.k.
Initial value of the localization sum :     0.000000
ITERATION   0 : L=    2.1463362250 DL=  2.15e+00 (AVERGE_DL)=    0.8458400607 
ITERATION   1 : L=    2.2871895397 DL=  1.41e-01 (AVERGE_DL)=    0.2166820365 
ITERATION   2 : L=    2.2893903728 DL=  2.20e-03 (AVERGE_DL)=    0.0270852546 
ITERATION   3 : L=    2.2894247608 DL=  3.44e-05 (AVERGE_DL)=    0.0033856568 
ITERATION   4 : L=    2.2894252981 DL=  5.37e-07 (AVERGE_DL)=    0.0004232071 
LOCALIZATION SUM CONVERGED

------------------------------------------------------
AUGMENTED HESSIAN OPTIMIZATION OF FOSTER-BOYS ORBITALS
------------------------------------------------------

Spin operator:           0
Orbital window:          1 to 3
Number of iterations:    128
Gradient tolerance:      1.000e-06
Number of pairs:         3
Davidson threshold:      2000
Diagonalization method:  LAPACK
Iter:    0   L: 2.2894252981   Grad. norm: 3.952435e-04
   *** Likely close to a maximum now. ***
       Augmented Hessian eigenvalues:  1.71e-08  4.27e-09 -9.16e+00 -9.16e+00
Iter:    1   L: 2.2894253066   Grad. norm: 1.808729e-08
LOCALIZATION HAS CONVERGED.

Eigenvalues of the Hessian:
  0  8.882e-16
  1 -9.158e+00
  2 -9.158e+00


--------------------------------------------------------------------------------
                    LOCALIZED MOLECULAR ORBITAL COMPOSITIONS
--------------------------------------------------------------------------------

The Mulliken populations for each LMO on each atom are computed
The LMO`s will be ordered according to atom index and type
  (A) Strongly localized MO`s have populations of >=0.950 on one atom
  (B) Two center bond orbitals have populations of >=0.850 on two atoms
  (C) Other MO`s are considered to be `delocalized`

FOUND  -   3 strongly local MO`s
       -   0 two center bond MO`s
       -   0 significantly delocalized MO`s

Rather strongly localized orbitals:
MO   3:   0C  -   1.000000
MO   2:   0C  -   1.000000
MO   1:   0C  -   1.000000
Localized MO's were stored in: /home/ubuntu/Shiwei/qm9_reaction_eng/qm9_orca_work/qm9_orca_work_elem/c/c_mp2_631+gss.loc

------------------------------------------------------------------------------
                           ORCA ORBITAL LOCALIZATION
------------------------------------------------------------------------------

Input orbitals are from                  ... /home/ubuntu/Shiwei/qm9_reaction_eng/qm9_orca_work/qm9_orca_work_elem/c/c_mp2_631+gss.loc
Output orbitals are to                   ... /home/ubuntu/Shiwei/qm9_reaction_eng/qm9_orca_work/qm9_orca_work_elem/c/c_mp2_631+gss.loc
Max. number of iterations                ... 128
Localizations seeded randomly            ... off
Convergence tolerance                    ... 1.000e-06
Threshold for strong local MOs           ... 9.500e-01
Threshold for bond MOs                   ... 8.500e-01
Operator                                 ... 1
Orbital range for localization           ... 1 to 1
Localization criterion                   ... FOSTER-BOYS (AUGMENTED HESSIAN)
Doing the dipole integrals     ... o.k.

ORCA_LOC: ONLY ONE ORBITAL - SKIPPING LOCALIZATION


--------------------------------------------------------------------------------
                    LOCALIZED MOLECULAR ORBITAL COMPOSITIONS
--------------------------------------------------------------------------------

The Mulliken populations for each LMO on each atom are computed
The LMO`s will be ordered according to atom index and type
  (A) Strongly localized MO`s have populations of >=0.950 on one atom
  (B) Two center bond orbitals have populations of >=0.850 on two atoms
  (C) Other MO`s are considered to be `delocalized`

FOUND  -   1 strongly local MO`s
       -   0 two center bond MO`s
       -   0 significantly delocalized MO`s

Rather strongly localized orbitals:
MO   1:   0C  -   1.000000
Localized MO's were stored in: /home/ubuntu/Shiwei/qm9_reaction_eng/qm9_orca_work/qm9_orca_work_elem/c/c_mp2_631+gss.loc

Localizing the core orbitals
------------------------------------------------------------------------------
                           ORCA ORBITAL LOCALIZATION
------------------------------------------------------------------------------

Input orbitals are from                  ... /home/ubuntu/Shiwei/qm9_reaction_eng/qm9_orca_work/qm9_orca_work_elem/c/c_mp2_631+gss.loc
Output orbitals are to                   ... /home/ubuntu/Shiwei/qm9_reaction_eng/qm9_orca_work/qm9_orca_work_elem/c/c_mp2_631+gss.loc
Max. number of iterations                ... 128
Localizations seeded randomly            ... off
Convergence tolerance                    ... 1.000e-06
Threshold for strong local MOs           ... 9.500e-01
Threshold for bond MOs                   ... 8.500e-01
Operator                                 ... 0
Orbital range for localization           ... 0 to 0
Localization criterion                   ... FOSTER-BOYS (AUGMENTED HESSIAN)
Doing the dipole integrals     ... o.k.

ORCA_LOC: ONLY ONE ORBITAL - SKIPPING LOCALIZATION


--------------------------------------------------------------------------------
                    LOCALIZED MOLECULAR ORBITAL COMPOSITIONS
--------------------------------------------------------------------------------

The Mulliken populations for each LMO on each atom are computed
The LMO`s will be ordered according to atom index and type
  (A) Strongly localized MO`s have populations of >=0.950 on one atom
  (B) Two center bond orbitals have populations of >=0.850 on two atoms
  (C) Other MO`s are considered to be `delocalized`

FOUND  -   1 strongly local MO`s
       -   0 two center bond MO`s
       -   0 significantly delocalized MO`s

Rather strongly localized orbitals:
MO   0:   0C  -   1.000000
Localized MO's were stored in: /home/ubuntu/Shiwei/qm9_reaction_eng/qm9_orca_work/qm9_orca_work_elem/c/c_mp2_631+gss.loc

Warning: reference  - re-canonicalizations have been set to INT 1 VIRT 1
Warning: internal orbitals are localized - no re-canonicalization of internal orbitals
Fock densities were made 
Making Fock matrix and reference energy:

--------------------------
UNRESTRICTED FOCK OPERATOR
--------------------------

Recanonicalizing the virtual orbitals
Storing new orbitals
Time needed for Fock operator              ...            0.002 sec
Reference energy                           ...    -37.683578695

-------------------------
SHARK HALF TRANSFORMATION
-------------------------

Number of basis functions                ...     18
Number of operators                      ...      2
   Operator  0:    1-   3

   Operator  1:    1-   1

Integral generator used                  ... SHARK
Contraction scheme used                  ... SEGMENTED CONTRACTION
MaxCore in resort                        ...   8000 MB

Half transformed integrals for op=   0   ... /home/ubuntu/Shiwei/qm9_reaction_eng/qm9_orca_work/qm9_orca_work_elem/c/c_mp2_631+gss.SHARK_MNPQ0.tmp
Resorted half transformed integrals      ... /home/ubuntu/Shiwei/qm9_reaction_eng/qm9_orca_work/qm9_orca_work_elem/c/c_mp2_631+gss._PQMN_0.tmp
Half transformed integrals for op=   1   ... /home/ubuntu/Shiwei/qm9_reaction_eng/qm9_orca_work/qm9_orca_work_elem/c/c_mp2_631+gss.SHARK_MNPQ1.tmp
Resorted half transformed integrals      ... /home/ubuntu/Shiwei/qm9_reaction_eng/qm9_orca_work/qm9_orca_work_elem/c/c_mp2_631+gss._PQMN_1.tmp
Starting integral generation + half trafo... 
Half trafo (segmented) done. Total time =  0.0 sec. integrals=  0.0 sec trafo=  0.0 sec
Starting integral resorting              ... done (  0.0 sec)

SHARK half integral transformation done. Total time =  0.0 sec.

----------------------------------
J-TRAFO SECOND HALF TRANSFORMATION
----------------------------------

Generate (ij|kl)                        ... NO
Generate (ij|ka)                        ... YES
Generate (ij|ab)                        ... YES
Generate (ia|bc)                        ... NO
Generate (ab|cd)                        ... NO
Generate (pq|rs)                        ... NO

Number of operators                     ... 2
   Operator 0                           ...    1-   3 to    4-  17
   PQMN-Container name                  ... /home/ubuntu/Shiwei/qm9_reaction_eng/qm9_orca_work/qm9_orca_work_elem/c/c_mp2_631+gss._PQMN_0.tmp
   IJKA-Container name    op=0,0        ... /home/ubuntu/Shiwei/qm9_reaction_eng/qm9_orca_work/qm9_orca_work_elem/c/c_mp2_631+gss._IJKA_0.tmp
   IJAB-Container name    op=0,0        ... /home/ubuntu/Shiwei/qm9_reaction_eng/qm9_orca_work/qm9_orca_work_elem/c/c_mp2_631+gss._IJAB_0.tmp
   IJKA-Container name    op=0,1        ... /home/ubuntu/Shiwei/qm9_reaction_eng/qm9_orca_work/qm9_orca_work_elem/c/c_mp2_631+gss._IJKA_2.tmp
   IJAB-Container name    op=0,1        ... /home/ubuntu/Shiwei/qm9_reaction_eng/qm9_orca_work/qm9_orca_work_elem/c/c_mp2_631+gss._IJAB_2.tmp
   Operator 1                           ...    1-   1 to    2-  17
   PQMN-Container name                  ... /home/ubuntu/Shiwei/qm9_reaction_eng/qm9_orca_work/qm9_orca_work_elem/c/c_mp2_631+gss._PQMN_1.tmp
   IJKA-Container name    op=1,0        ... /home/ubuntu/Shiwei/qm9_reaction_eng/qm9_orca_work/qm9_orca_work_elem/c/c_mp2_631+gss._IJKA_3.tmp
   IJAB-Container name    op=1,0        ... /home/ubuntu/Shiwei/qm9_reaction_eng/qm9_orca_work/qm9_orca_work_elem/c/c_mp2_631+gss._IJAB_3.tmp
   IJKA-Container name    op=1,1        ... /home/ubuntu/Shiwei/qm9_reaction_eng/qm9_orca_work/qm9_orca_work_elem/c/c_mp2_631+gss._IJKA_1.tmp
   IJAB-Container name    op=1,1        ... /home/ubuntu/Shiwei/qm9_reaction_eng/qm9_orca_work/qm9_orca_work_elem/c/c_mp2_631+gss._IJAB_1.tmp

Starting integral transformations       ... done
Completed Coulomb integral formation in   0.0 sec


-------------------------
SHARK HALF TRANSFORMATION (Exchange order)
-------------------------

Number of basis functions                   ...     18
Number of operators                         ...      2
   Operator  0:    1-   3 (p-index in (p*|q*))
   Operator  0:    1-   3 (q-index in (p*|q*)
   Operator  1:    1-   1 (p-index in (p*|q*))
   Operator  1:    1-   1 (q-index in (p*|q*)
Integral generator used                     ... SHARK
Contraction scheme used                     ... SEGMENTED CONTRACTION
MaxCore in resort                           ...   8000 MB

Half transformed integrals for op=   0      ... /home/ubuntu/Shiwei/qm9_reaction_eng/qm9_orca_work/qm9_orca_work_elem/c/c_mp2_631+gss.SHARK_MNPQ0.tmp
Resorted half transformed integrals         ... /home/ubuntu/Shiwei/qm9_reaction_eng/qm9_orca_work/qm9_orca_work_elem/c/c_mp2_631+gss._PMQN_0.tmp
Half transformed integrals for op=   1      ... /home/ubuntu/Shiwei/qm9_reaction_eng/qm9_orca_work/qm9_orca_work_elem/c/c_mp2_631+gss.SHARK_MNPQ1.tmp
Resorted half transformed integrals         ... /home/ubuntu/Shiwei/qm9_reaction_eng/qm9_orca_work/qm9_orca_work_elem/c/c_mp2_631+gss._PMQN_1.tmp
Half transformed integrals for op=0/1       ... /home/ubuntu/Shiwei/qm9_reaction_eng/qm9_orca_work/qm9_orca_work_elem/c/c_mp2_631+gss.SHARK_MNPQ01.tmp
Resorted half transformed integrals         ... /home/ubuntu/Shiwei/qm9_reaction_eng/qm9_orca_work/qm9_orca_work_elem/c/c_mp2_631+gss._PMQN_2.tmp
Half transformed integrals for op=1/0       ... /home/ubuntu/Shiwei/qm9_reaction_eng/qm9_orca_work/qm9_orca_work_elem/c/c_mp2_631+gss.SHARK_MNPQ10.tmp
Resorted half transformed integrals         ... /home/ubuntu/Shiwei/qm9_reaction_eng/qm9_orca_work/qm9_orca_work_elem/c/c_mp2_631+gss._PMQN_3.tmp

Half trafo (segmented) done. Total time =  0.0 sec. integrals=  0.0 sec trafo=  0.0 sec

----------------------
SHARK INTEGRAL SORTING (Exchange)
----------------------

Input container                             ... /home/ubuntu/Shiwei/qm9_reaction_eng/qm9_orca_work/qm9_orca_work_elem/c/c_mp2_631+gss.SHARK_MNPQ0.tmp
Output container                            ... /home/ubuntu/Shiwei/qm9_reaction_eng/qm9_orca_work/qm9_orca_work_elem/c/c_mp2_631+gss._PMQN_0.tmp
Range of AO-indices                         ...    0 -   17
Range of bra indices i                      ...    1 -    3
Range of ket indices j                      ...    1 -    3
Symmetric i,j range                         ... YES
Number of (i,j) pairs generated             ...    6
Max Core memory in MB                       ...   8000

Available core memory in MB                 ...   7981.64
MB needed for one item                      ...      0.00
Number of items                             ...         6
Number of batches                           ...         1
Items treated per batch                     ...         6
Batch   0                                   ...      0-     5 (     6)
   => Closing output file and leaving

----------------------
SHARK INTEGRAL SORTING (Exchange)
----------------------

Input container                             ... /home/ubuntu/Shiwei/qm9_reaction_eng/qm9_orca_work/qm9_orca_work_elem/c/c_mp2_631+gss.SHARK_MNPQ1.tmp
Output container                            ... /home/ubuntu/Shiwei/qm9_reaction_eng/qm9_orca_work/qm9_orca_work_elem/c/c_mp2_631+gss._PMQN_1.tmp
Range of AO-indices                         ...    0 -   17
Range of bra indices i                      ...    1 -    1
Range of ket indices j                      ...    1 -    1
Symmetric i,j range                         ... YES
Number of (i,j) pairs generated             ...    1
Max Core memory in MB                       ...   8000

Available core memory in MB                 ...   7981.65
MB needed for one item                      ...      0.00
Number of items                             ...         1
Number of batches                           ...         1
Items treated per batch                     ...         1
Batch   0                                   ...      0-     0 (     1)
   => Closing output file and leaving

----------------------
SHARK INTEGRAL SORTING (Exchange)
----------------------

Input container                             ... /home/ubuntu/Shiwei/qm9_reaction_eng/qm9_orca_work/qm9_orca_work_elem/c/c_mp2_631+gss.SHARK_MNPQ01.tmp
Output container                            ... /home/ubuntu/Shiwei/qm9_reaction_eng/qm9_orca_work/qm9_orca_work_elem/c/c_mp2_631+gss._PMQN_2.tmp
Range of AO-indices                         ...    0 -   17
Range of bra indices i                      ...    1 -    3
Range of ket indices j                      ...    1 -    1
Symmetric i,j range                         ... NO
Number of (i,j) pairs generated             ...    3
Max Core memory in MB                       ...   8000

Available core memory in MB                 ...   7981.65
MB needed for one item                      ...      0.00
Number of items                             ...         3
Number of batches                           ...         1
Items treated per batch                     ...         3
Batch   0                                   ...      0-     2 (     3)
   => Closing output file and leaving

----------------------
SHARK INTEGRAL SORTING (Exchange)
----------------------

Input container                             ... /home/ubuntu/Shiwei/qm9_reaction_eng/qm9_orca_work/qm9_orca_work_elem/c/c_mp2_631+gss.SHARK_MNPQ10.tmp
Output container                            ... /home/ubuntu/Shiwei/qm9_reaction_eng/qm9_orca_work/qm9_orca_work_elem/c/c_mp2_631+gss._PMQN_3.tmp
Range of AO-indices                         ...    0 -   17
Range of bra indices i                      ...    1 -    1
Range of ket indices j                      ...    1 -    3
Symmetric i,j range                         ... NO
Number of (i,j) pairs generated             ...    3
Max Core memory in MB                       ...   8000

Available core memory in MB                 ...   7981.66
MB needed for one item                      ...      0.00
Number of items                             ...         3
Number of batches                           ...         1
Items treated per batch                     ...         3
Batch   0                                   ...      0-     2 (     3)
   => Closing output file and leaving
done (  0.0 sec)

SHARK half integral transformation done. Total time =  0.0 sec.

----------------------------------
K-TRAFO SECOND HALF TRANSFORMATION
----------------------------------

Generate (ik|jl)                        ... YES
Generate (ik|ja)                        ... YES
Generate (ia|jb)                        ... YES
Generate (ib|ac)                        ... NO
Generate (ac|bd)                        ... NO
Generate (pr|qs)                        ... NO

Number of operators                     ... 2
   Operator 0                           ...    1-   3 to    4-  17
   Operator 1                           ...    1-   1 to    2-  17

Starting integral transformations       ... done
Completed Exchange integral formation in   0.0 sec


-----------------------
SPIN UNRESTRICTED GUESS
-----------------------

Spin-components of the MP2 energy:
EMP2(aa)=     -0.009017904
EMP2(bb)=      0.000000000
EMP2(ab)=     -0.043400549

Initial guess performed in     0.000 sec
E(0)                                       ...    -37.683578695
E(MP2)                                     ...     -0.052418453
Initial E(tot)                             ...    -37.735997149
<T|T>                                      ...      0.021017620
Number of pairs included                   ... 6

---------------------------
UHF QUADRATIC CI ITERATIONS
---------------------------

Number of amplitudes to be optimized       ...          995

Iter       E(tot)           E(Corr)          Delta-E          Residual     Time      <S|S>**1/2
  0 Entering Calc_Sigma_UHF
Calling CC/MakeTauAmplitudes
Calling QCI/DressFock
Done with QCI/DressFock (    0.000 sec)
Calling QCI/DressIKJL
Done with QCI/DressIKJL (    0.000 sec)
Calling QCI/DressJK
Done with QCI/DressJK (    0.000 sec)
Calling Calc_0D_1
Done with Calc_0D_1  (    0.000 sec)
Largest sigma element after [0D_1] :      0.060239512
Calling Calc_DD_0a
Done with Calc_DD_0a (    0.000 sec) 
Calling Calc_DD_0b
Done with Calc_DD_0b (    0.000 sec)
Largest sigma element after [DD_0] :      0.043108435
Calling Calc_DD_2a
Done with Calc_DD_2a (    0.000 sec)
Calling Calc_DD_2b
Done with Calc_DD_2b (    0.000 sec)
Largest sigma element after [DD_2] :      0.029881172
Calling Calc_DD_4
COD Check DIM 18 NMOa 17 
COD Check DIM 18 NMOa 17 
Batching information for K(C)-AO:
   Number of pairs=                6
   Mem per (i,j)  =            0.007 MB
   (i,j) per batch=                6
   N(Batches)     =                1
   T(CutInt)      =  1.000000000e-11
COD check DIM 18
COD check DIM 18
COD check DIM 18
COD check DIM 18
COD check DIM 18
COD check DIM 18
K(C)-AOX-2 (UHF Version)  :
  Mem per (p,q)   =            0.002 MB
  (p,q) per batch =              171 
  N(batches)      =                1 
  N(pq-pairs)     =              171 
Mapped the (p,q) pairs
Formed amplitude T+/- combinations
P-batch no 1
  pairs =    0 ...  170
  (p,q) in batch =  171
  integral combination K+/- formed
  matrix multiplications done
  sigma-vector contributions done
All batches done
Done with Calc_DD_4
Done (3)/4 external (    0.000 sec)
Largest sigma element after [DD_4] :      0.020282386
Calling Calc_S0_1
Done with Calc_S0_1 (    0.000 sec)
Largest sigma element after [S0_1] :      0.020282433
Calling Calc_SS_1
Done with Calc_SS_1 (    0.000 sec)
Largest sigma element after [SS_1] :      0.020282452
Calling Calc_DS_1
Done with Calc_DS_1 (    0.000 sec)
Largest sigma element after [DS_1] :      0.014884881
Calling Calc_SD_1
Done with Calc_SD_1 (    0.000 sec)
Largest sigma element after [SD_1] :      0.014884881
Largest sigma element after [SD_3] :      0.014884881
Calling Calc_PairEnergies
E_DD  -0.014466849749
E_SD  -0.034945635608
E_SS  -0.003005968075
E_SingS  -0.000000000000
E_SingD  -0.000000000000
Done with Calc_PairEnergies (    0.000 sec)
Largest sigma element after [PAIR] :      0.014884881
EC=     -0.052418453
Pair energies:
   0 :     -0.003005968
   1 :     -0.003005968
   2 :     -0.003005968
   3 :     -0.014466850
   4 :     -0.014466850
   5 :     -0.014466850
   6 :     -0.000000000
   7 :     -0.000000000
   8 :     -0.000000000
   9 :     -0.000000000
Calling Calc_Shift
Done with Calc_Shift (    0.000 sec)
Largest sigma element after [SHFT] :      0.014884881
Leaving Calc_Sigma
Largest sigma element after [COLL] :      0.014884881
   => Past ModifyStateVector
   => Leaving sigma vector
   -37.735997149     -0.052418453     -0.000000000      0.014884881    0.00      0.000000151
                           *** Turning on DIIS ***
  1 Entering Calc_Sigma_UHF
Calling CC/MakeTauAmplitudes
Calling QCI/DressFock
Done with QCI/DressFock (    0.000 sec)
Calling QCI/DressIKJL
Done with QCI/DressIKJL (    0.000 sec)
Calling QCI/DressJK
Done with QCI/DressJK (    0.000 sec)
Calling Calc_0D_1
Done with Calc_0D_1  (    0.000 sec)
Largest sigma element after [0D_1] :      0.060239512
Calling Calc_DD_0a
Done with Calc_DD_0a (    0.000 sec) 
Calling Calc_DD_0b
Done with Calc_DD_0b (    0.000 sec)
Largest sigma element after [DD_0] :      0.040962197
Calling Calc_DD_2a
Done with Calc_DD_2a (    0.000 sec)
Calling Calc_DD_2b
Done with Calc_DD_2b (    0.000 sec)
Largest sigma element after [DD_2] :      0.028281295
Calling Calc_DD_4
COD Check DIM 18 NMOa 17 
COD Check DIM 18 NMOa 17 
Batching information for K(C)-AO:
   Number of pairs=                6
   Mem per (i,j)  =            0.007 MB
   (i,j) per batch=                6
   N(Batches)     =                1
   T(CutInt)      =  1.000000000e-11
COD check DIM 18
COD check DIM 18
COD check DIM 18
COD check DIM 18
COD check DIM 18
COD check DIM 18
K(C)-AOX-2 (UHF Version)  :
  Mem per (p,q)   =            0.002 MB
  (p,q) per batch =              171 
  N(batches)      =                1 
  N(pq-pairs)     =              171 
Mapped the (p,q) pairs
Formed amplitude T+/- combinations
P-batch no 1
  pairs =    0 ...  170
  (p,q) in batch =  171
  integral combination K+/- formed
  matrix multiplications done
  sigma-vector contributions done
All batches done
Done with Calc_DD_4
Done (3)/4 external (    0.000 sec)
Largest sigma element after [DD_4] :      0.016306478
Calling Calc_S0_1
Done with Calc_S0_1 (    0.000 sec)
Largest sigma element after [S0_1] :      0.016306525
Calling Calc_SS_1
Done with Calc_SS_1 (    0.000 sec)
Largest sigma element after [SS_1] :      0.017582760
Calling Calc_DS_1
Done with Calc_DS_1 (    0.000 sec)
Largest sigma element after [DS_1] :      0.006264149
Calling Calc_SD_1
Done with Calc_SD_1 (    0.000 sec)
Largest sigma element after [SD_1] :      0.006264149
Largest sigma element after [SD_3] :      0.006264149
Calling Calc_PairEnergies
E_DD  -0.017835296374
E_SD  -0.042636625147
E_SS  -0.003483016225
E_SingS  -0.000000000779
E_SingD  -0.000000000022
Done with Calc_PairEnergies (    0.000 sec)
Largest sigma element after [PAIR] :      0.006264149
EC=     -0.063954939
Pair energies:
   0 :     -0.003483016
   1 :     -0.003483016
   2 :     -0.003483016
   3 :     -0.017835296
   4 :     -0.017835296
   5 :     -0.017835296
   6 :     -0.000000000
   7 :     -0.000000000
   8 :     -0.000000000
   9 :     -0.000000001
Calling Calc_Shift
Done with Calc_Shift (    0.000 sec)
Largest sigma element after [SHFT] :      0.006264149
Leaving Calc_Sigma
Largest sigma element after [COLL] :      0.006264149
   => Past ModifyStateVector
   => Leaving sigma vector
   -37.747533634     -0.063954939     -0.011536485      0.006264149    0.00      0.006761787
The DIIS matrix
                  0          1          2    
      0       0.009770   0.003541   1.000000
      1       0.003541   0.001452   1.000000
      2       1.000000   1.000000   0.000000
                  0          1          2    
      0       0.000000   0.000000   0.000000
      1       0.000000   0.000000   0.000000
      2       1.000000   0.000000   0.000000
The DIIS solution:
   -0.504764    1.504764
  2 Entering Calc_Sigma_UHF
Calling CC/MakeTauAmplitudes
Calling QCI/DressFock
Done with QCI/DressFock (    0.000 sec)
Calling QCI/DressIKJL
Done with QCI/DressIKJL (    0.000 sec)
Calling QCI/DressJK
Done with QCI/DressJK (    0.000 sec)
Calling Calc_0D_1
Done with Calc_0D_1  (    0.000 sec)
Largest sigma element after [0D_1] :      0.060239512
Calling Calc_DD_0a
Done with Calc_DD_0a (    0.000 sec) 
Calling Calc_DD_0b
Done with Calc_DD_0b (    0.000 sec)
Largest sigma element after [DD_0] :      0.053799651
Calling Calc_DD_2a
Done with Calc_DD_2a (    0.000 sec)
Calling Calc_DD_2b
Done with Calc_DD_2b (    0.000 sec)
Largest sigma element after [DD_2] :      0.027179058
Calling Calc_DD_4
COD Check DIM 18 NMOa 17 
COD Check DIM 18 NMOa 17 
Batching information for K(C)-AO:
   Number of pairs=                6
   Mem per (i,j)  =            0.007 MB
   (i,j) per batch=                6
   N(Batches)     =                1
   T(CutInt)      =  1.000000000e-11
COD check DIM 18
COD check DIM 18
COD check DIM 18
COD check DIM 18
COD check DIM 18
COD check DIM 18
K(C)-AOX-2 (UHF Version)  :
  Mem per (p,q)   =            0.002 MB
  (p,q) per batch =              171 
  N(batches)      =                1 
  N(pq-pairs)     =              171 
Mapped the (p,q) pairs
Formed amplitude T+/- combinations
P-batch no 1
  pairs =    0 ...  170
  (p,q) in batch =  171
  integral combination K+/- formed
  matrix multiplications done
  sigma-vector contributions done
All batches done
Done with Calc_DD_4
Done (3)/4 external (    0.000 sec)
Largest sigma element after [DD_4] :      0.011820702
Calling Calc_S0_1
Done with Calc_S0_1 (    0.000 sec)
Largest sigma element after [S0_1] :      0.011820691
Calling Calc_SS_1
Done with Calc_SS_1 (    0.000 sec)
Largest sigma element after [SS_1] :      0.013825276
Calling Calc_DS_1
Done with Calc_DS_1 (    0.000 sec)
Largest sigma element after [DS_1] :      0.001755116
Calling Calc_SD_1
Done with Calc_SD_1 (    0.000 sec)
Largest sigma element after [SD_1] :      0.001755116
Largest sigma element after [SD_3] :      0.001755116
Calling Calc_PairEnergies
E_DD  -0.019651995971
E_SD  -0.046572412681
E_SS  -0.003634210401
E_SingS  -0.000000001424
E_SingD  -0.000000000030
Done with Calc_PairEnergies (    0.000 sec)
Largest sigma element after [PAIR] :      0.001755116
EC=     -0.069858621
Pair energies:
   0 :     -0.003634210
   1 :     -0.003634210
   2 :     -0.003634210
   3 :     -0.019651996
   4 :     -0.019651996
   5 :     -0.019651996
   6 :     -0.000000000
   7 :     -0.000000000
   8 :     -0.000000000
   9 :     -0.000000001
Calling Calc_Shift
Done with Calc_Shift (    0.000 sec)
Largest sigma element after [SHFT] :      0.001755116
Leaving Calc_Sigma
Largest sigma element after [COLL] :      0.001755116
   => Past ModifyStateVector
   => Leaving sigma vector
   -37.753437316     -0.069858621     -0.005903682      0.001755116    0.00      0.012267746
The DIIS matrix
                  0          1          2          3    
      0       0.009770   0.003541   0.000349   1.000000
      1       0.003541   0.001452   0.000237   1.000000
      2       0.000349   0.000237   0.000090   1.000000
      3       1.000000   1.000000   1.000000   0.000000
                  0          1          2          3    
      0       0.000000   0.000000   0.000000   0.000000
      1       0.000000   0.000000   0.000000   0.000000
      2       0.000000   0.000000   0.000000   0.000000
      3       1.000000   0.000000   0.000000   0.000000
The DIIS solution:
    0.337462   -1.100631    1.763169
  3 Entering Calc_Sigma_UHF
Calling CC/MakeTauAmplitudes
Calling QCI/DressFock
Done with QCI/DressFock (    0.000 sec)
Calling QCI/DressIKJL
Done with QCI/DressIKJL (    0.000 sec)
Calling QCI/DressJK
Done with QCI/DressJK (    0.000 sec)
Calling Calc_0D_1
Done with Calc_0D_1  (    0.000 sec)
Largest sigma element after [0D_1] :      0.060239512
Calling Calc_DD_0a
Done with Calc_DD_0a (    0.000 sec) 
Calling Calc_DD_0b
Done with Calc_DD_0b (    0.000 sec)
Largest sigma element after [DD_0] :      0.058637923
Calling Calc_DD_2a
Done with Calc_DD_2a (    0.000 sec)
Calling Calc_DD_2b
Done with Calc_DD_2b (    0.000 sec)
Largest sigma element after [DD_2] :      0.026783118
Calling Calc_DD_4
COD Check DIM 18 NMOa 17 
COD Check DIM 18 NMOa 17 
Batching information for K(C)-AO:
   Number of pairs=                6
   Mem per (i,j)  =            0.007 MB
   (i,j) per batch=                6
   N(Batches)     =                1
   T(CutInt)      =  1.000000000e-11
COD check DIM 18
COD check DIM 18
COD check DIM 18
COD check DIM 18
COD check DIM 18
COD check DIM 18
K(C)-AOX-2 (UHF Version)  :
  Mem per (p,q)   =            0.002 MB
  (p,q) per batch =              171 
  N(batches)      =                1 
  N(pq-pairs)     =              171 
Mapped the (p,q) pairs
Formed amplitude T+/- combinations
P-batch no 1
  pairs =    0 ...  170
  (p,q) in batch =  171
  integral combination K+/- formed
  matrix multiplications done
  sigma-vector contributions done
All batches done
Done with Calc_DD_4
Done (3)/4 external (    0.000 sec)
Largest sigma element after [DD_4] :      0.012218835
Calling Calc_S0_1
Done with Calc_S0_1 (    0.000 sec)
Largest sigma element after [S0_1] :      0.012218824
Calling Calc_SS_1
Done with Calc_SS_1 (    0.000 sec)
Largest sigma element after [SS_1] :      0.012208301
Calling Calc_DS_1
Done with Calc_DS_1 (    0.000 sec)
Largest sigma element after [DS_1] :      0.001297580
Calling Calc_SD_1
Done with Calc_SD_1 (    0.000 sec)
Largest sigma element after [SD_1] :      0.000535752
Largest sigma element after [SD_3] :      0.000535752
Calling Calc_PairEnergies
E_DD  -0.019909882709
E_SD  -0.047029015487
E_SS  -0.003604625069
E_SingS  -0.000000001706
E_SingD  -0.000000000019
Done with Calc_PairEnergies (    0.000 sec)
Largest sigma element after [PAIR] :      0.000535752
EC=     -0.070543525
Pair energies:
   0 :     -0.003604625
   1 :     -0.003604625
   2 :     -0.003604625
   3 :     -0.019909883
   4 :     -0.019909883
   5 :     -0.019909883
   6 :     -0.000000000
   7 :     -0.000000000
   8 :     -0.000000000
   9 :     -0.000000002
Calling Calc_Shift
[...]
                  6    
      0       1.000000
      1       1.000000
      2       1.000000
      3       1.000000
      4       1.000000
      5       1.000000
      6       0.000000
                  0          1          2          3          4          5    
      0       0.000000   0.000000   0.000000   0.000000   0.000000   0.000000
      1       0.000000   0.000000   0.000000   0.000000   0.000000   0.000000
      2       0.000000   0.000000   0.000000   0.000000   0.000000   0.000000
      3       0.000000   0.000000   0.000000   0.000000   0.000000   0.000000
      4       0.000000   0.000000   0.000000   0.000000   0.000000   0.000000
      5       0.000000   0.000000   0.000000   0.000000   0.000000   0.000000
      6       1.000000   0.000000   0.000000   0.000000   0.000000   0.000000
                  6    
      0       0.000000
      1       0.000000
      2       0.000000
      3       0.000000
      4       0.000000
      5       0.000000
      6       0.000000
The DIIS solution:
    0.010332   -0.036955    0.057388   -0.016303   -0.581800    1.567337
  6 Entering Calc_Sigma_UHF
Calling CC/MakeTauAmplitudes
Calling QCI/DressFock
Done with QCI/DressFock (    0.000 sec)
Calling QCI/DressIKJL
Done with QCI/DressIKJL (    0.000 sec)
Calling QCI/DressJK
Done with QCI/DressJK (    0.000 sec)
Calling Calc_0D_1
Done with Calc_0D_1  (    0.000 sec)
Largest sigma element after [0D_1] :      0.060239512
Calling Calc_DD_0a
Done with Calc_DD_0a (    0.000 sec) 
Calling Calc_DD_0b
Done with Calc_DD_0b (    0.000 sec)
Largest sigma element after [DD_0] :      0.059228056
Calling Calc_DD_2a
Done with Calc_DD_2a (    0.000 sec)
Calling Calc_DD_2b
Done with Calc_DD_2b (    0.000 sec)
Largest sigma element after [DD_2] :      0.026713720
Calling Calc_DD_4
COD Check DIM 18 NMOa 17 
COD Check DIM 18 NMOa 17 
Batching information for K(C)-AO:
   Number of pairs=                6
   Mem per (i,j)  =            0.007 MB
   (i,j) per batch=                6
   N(Batches)     =                1
   T(CutInt)      =  1.000000000e-11
COD check DIM 18
COD check DIM 18
COD check DIM 18
COD check DIM 18
COD check DIM 18
COD check DIM 18
K(C)-AOX-2 (UHF Version)  :
  Mem per (p,q)   =            0.002 MB
  (p,q) per batch =              171 
  N(batches)      =                1 
  N(pq-pairs)     =              171 
Mapped the (p,q) pairs
Formed amplitude T+/- combinations
P-batch no 1
  pairs =    0 ...  170
  (p,q) in batch =  171
  integral combination K+/- formed
  matrix multiplications done
  sigma-vector contributions done
All batches done
Done with Calc_DD_4
Done (3)/4 external (    0.000 sec)
Largest sigma element after [DD_4] :      0.012648498
Calling Calc_S0_1
Done with Calc_S0_1 (    0.000 sec)
Largest sigma element after [S0_1] :      0.012648487
Calling Calc_SS_1
Done with Calc_SS_1 (    0.000 sec)
Largest sigma element after [SS_1] :      0.012131079
Calling Calc_DS_1
Done with Calc_DS_1 (    0.000 sec)
Largest sigma element after [DS_1] :      0.001300484
Calling Calc_SD_1
Done with Calc_SD_1 (    0.000 sec)
Largest sigma element after [SD_1] :      0.000015314
Largest sigma element after [SD_3] :      0.000015314
Calling Calc_PairEnergies
E_DD  -0.019939222995
E_SD  -0.047108826998
E_SS  -0.003615190540
E_SingS  -0.000000001761
E_SingD  -0.000000000001
Done with Calc_PairEnergies (    0.000 sec)
Largest sigma element after [PAIR] :      0.000015314
EC=     -0.070663242
Pair energies:
   0 :     -0.003615191
   1 :     -0.003615191
   2 :     -0.003615191
   3 :     -0.019939223
   4 :     -0.019939223
   5 :     -0.019939223
   6 :     -0.000000000
   7 :     -0.000000000
   8 :     -0.000000000
   9 :     -0.000000002
Calling Calc_Shift
Done with Calc_Shift (    0.000 sec)
Largest sigma element after [SHFT] :      0.000015314
Leaving Calc_Sigma
Largest sigma element after [COLL] :      0.000015314
   => Past ModifyStateVector
   => Leaving sigma vector
   -37.754241938     -0.070663242     -0.000006702      0.000015314    0.00      0.016362057
               --- The Quadratic CI iterations have converged ---

-------------------
QUADRATIC CI ENERGY
-------------------

E(0)                                       ...    -37.683578695
E(CORR)(strong-pairs)                      ...     -0.070663242
E(CORR)(weak-pairs)                        ...      0.000000000
E(CORR)(total)                             ...     -0.070663242
E(TOT)                                     ...    -37.754241938
Singles norm <S|S>**1/2                    ...      0.016362057 ( 0.012231161, 0.004130897)  
T1 diagnostic                              ...      0.008181029                              

------------------
LARGEST AMPLITUDES
------------------
   1a->  4a   1b->  2b       0.045924
   2a->  4a   1b->  2b       0.045924
   3a->  4a   1b->  2b       0.045924
   1a->  4a   1b->  6b       0.042572
   2a->  4a   1b->  6b       0.042572
   3a->  4a   1b->  6b       0.042572
   1a->  8a   1b->  2b       0.031150
   2a->  8a   1b->  2b       0.031150
   3a->  8a   1b->  2b       0.031150
   1a->  8a   1b->  6b       0.029360
   2a->  8a   1b->  6b       0.029360
   3a->  8a   1b->  6b       0.029360
   3a->  9a   1b-> 12b       0.024158
   3a-> 14a   1b->  8b       0.023504
   3a-> 13a   1b->  7b       0.023504
   1a-> 10a   1b-> 12b       0.022388



------------------------------
PAIR CORRELATION ENERGIES (Eh)
------------------------------


                      -----------------------
                      |  Alpha-Alpha Pairs  |
-------------------------------------------------------------------
    i     j         EP(Guess)         EP(Final)       Ratio        
-------------------------------------------------------------------
    3     2  :     -0.003005968      -0.003615191     0.83
    3     1  :     -0.003005968      -0.003615191     0.83
    2     1  :     -0.003005968      -0.003615191     0.83

                      -----------------------
                      |   Alpha-Beta Pairs  |
-------------------------------------------------------------------
    i     j         EP(Guess)         EP(Final)       Ratio        
-------------------------------------------------------------------
    1     1  :     -0.014466850      -0.019939223     0.73
    2     1  :     -0.014466850      -0.019939223     0.73
    3     1  :     -0.014466850      -0.019939223     0.73

Sum of all alpha-alpha pair energies     ...  -0.010845571596 Eh
Sum of all beta-beta pair energies       ...   0.000000000000 Eh
Sum of all alpha-beta pair energies      ...  -0.059817668937 Eh
                                             ----------------
                                              -0.070663240532 Eh


        !!!!!!!!!!!!!!!!!!!!!!!!!!!!!!!!!!!!!!!!!!!!!!!!!!!!!!!!!!!!!!!!!!!!!!!!!! 
        !  Warning: Densities are linearized densities                           !
        !!!!!!!!!!!!!!!!!!!!!!!!!!!!!!!!!!!!!!!!!!!!!!!!!!!!!!!!!!!!!!!!!!!!!!!!!! 

NORM  =      1.043763222 sqrt=     1.021647308
W(HF) =      0.958071696
------------------------------------------------------------------------------
                           ORCA POPULATION ANALYSIS
------------------------------------------------------------------------------
Input electron density              ... /home/ubuntu/Shiwei/qm9_reaction_eng/qm9_orca_work/qm9_orca_work_elem/c/c_mp2_631+gss.mdcip
Input spin density                  ... /home/ubuntu/Shiwei/qm9_reaction_eng/qm9_orca_work/qm9_orca_work_elem/c/c_mp2_631+gss.mdcir
BaseName (.gbw .S,...)              ... /home/ubuntu/Shiwei/qm9_reaction_eng/qm9_orca_work/qm9_orca_work_elem/c/c_mp2_631+gss

                    ********************************
                    * MULLIKEN POPULATION ANALYSIS *
                    ********************************

------------------------------------------
MULLIKEN ATOMIC CHARGES AND SPIN DENSITIES
------------------------------------------
   0 C :   -0.000000    2.000000
Sum of atomic charges       :   -0.0000000
Sum of atomic spin densities:    2.0000000

---------------------------------------------------
MULLIKEN REDUCED ORBITAL CHARGES AND SPIN DENSITIES
---------------------------------------------------
CHARGE
  0 C s       :     3.943837  s :     3.943837
      pz      :     0.305343  p :     2.040991
      px      :     0.974878
      py      :     0.760770
      dz2     :     0.002576  d :     0.015173
      dxz     :     0.002941
      dyz     :     0.002669
      dx2y2   :     0.003493
      dxy     :     0.003494

SPIN
  0 C s       :     0.013684  s :     0.013684
      pz      :     0.270230  p :     1.976816
      px      :     0.964264
      py      :     0.742322
      dz2     :     0.001078  d :     0.009500
      dxz     :     0.001718
      dyz     :     0.001262
      dx2y2   :     0.002722
      dxy     :     0.002721


                     *******************************
                     * LOEWDIN POPULATION ANALYSIS *
                     *******************************

-----------------------------------------
LOEWDIN ATOMIC CHARGES AND SPIN DENSITIES
-----------------------------------------
   0 C :   -0.000000    2.000000

--------------------------------------------------
LOEWDIN REDUCED ORBITAL CHARGES AND SPIN DENSITIES
--------------------------------------------------
CHARGE
  0 C s       :     3.943837  s :     3.943837
      pz      :     0.305343  p :     2.040991
      px      :     0.974878
      py      :     0.760770
      dz2     :     0.002576  d :     0.015173
      dxz     :     0.002941
      dyz     :     0.002669
      dx2y2   :     0.003493
      dxy     :     0.003494

SPIN
  0 C s       :     0.013684  s :     0.013684
      pz      :     0.270230  p :     1.976816
      px      :     0.964264
      py      :     0.742322
      dz2     :     0.001078  d :     0.009500
      dxz     :     0.001718
      dyz     :     0.001262
      dx2y2   :     0.002722
      dxy     :     0.002721


                      *****************************
                      * MAYER POPULATION ANALYSIS *
                      *****************************

  NA   - Mulliken gross atomic population
  ZA   - Total nuclear charge
  QA   - Mulliken gross atomic charge
  VA   - Mayer's total valence
  BVA  - Mayer's bonded valence
  FA   - Mayer's free valence

  ATOM       NA         ZA         QA         VA         BVA        FA
  0 C      6.0000     6.0000    -0.0000     2.2835     0.0000     2.2835

  => No bond orders to print



--------------------------------------------------------------------------------
                                    TIMINGS
--------------------------------------------------------------------------------


Total execution time                   ...        0.134 sec

Localization of occupied MO's          ...        0.032 sec ( 23.6%)
Fock Matrix Formation                  ...        0.002 sec (  1.6%)
Initial Guess                          ...        0.000 sec (  0.0%)
DIIS Solver                            ...        0.000 sec (  0.2%)
State Vector Update                    ...        0.000 sec (  0.0%)
Sigma-vector construction              ...        0.005 sec (  3.8%)
  <D|H|D>(4-ext)                       ...        0.002 sec ( 30.1% of sigma)


Maximum memory used throughout the entire MDCI-calculation: 19.5 MB

-------------------------   --------------------
FINAL SINGLE POINT ENERGY       -37.754241937592
-------------------------   --------------------


------------------------------------------------------------------------------
                              ORCA PROPERTY CALCULATIONS
------------------------------------------------------------------------------

GBWName                                 ... /home/ubuntu/Shiwei/qm9_reaction_eng/qm9_orca_work/qm9_orca_work_elem/c/c_mp2_631+gss.gbw
Number of atoms                         ...      1
Number of basis functions               ...     18
Max core memory                         ...   8000 MB

Electric properties:
Dipole moment                           ... YES
Quadrupole moment                       ...  NO
Static polarizability (Dipole/Dipole)   ...  NO
Static polarizability (Dipole/Quad.)    ...  NO
Static polarizability (Quad./Quad.)     ...  NO
Static polarizability (Velocity)        ...  NO

Atomic electric properties:
Dipole moment                           ...  NO
Quadrupole moment                       ...  NO
Static polarizability                   ...  NO

Choice of electric origin               ... Center of mass
Position of electric origin             ...     0.000000     0.000000     0.000000

General magnetic properties:
Magnetizability                         ...  NO

EPR properties:
g-Tensor (aka g-matrix)                 ...  NO
Zero-Field splitting spin-orbit         ...  NO
Zero-field splitting spin-spin          ...  NO
Hyperfine couplings                     ...  NO (   0 nuclei)
Quadrupole couplings                    ...  NO (   0 nuclei)
Contact density                         ...  NO (   0 nuclei)

NMR properties:
Chemical shifts                         ...  NO (   0 nuclei)
Spin-rotation constants                 ...  NO (   0 nuclei)
Spin-spin couplings                     ...  NO (   0 nuclei,    0 pairs)

Choice of magnetic origin               ... GIAO
Position of magnetic origin             ...     0.000000     0.000000     0.000000

Properties with geometric perturbations:
SCF Hessian                             ...  NO
IR spectrum                             ...  NO
VCD spectrum                            ...  NO
X-ray spectroscopy properties:
SCF XES/XAS/RIXS spectra                ...  NO


-------------
DIPOLE MOMENT
-------------

Method             : SCF
Type of density    : Electron Density
Multiplicity       :   3
Irrep              :   0
Energy             :   -37.6835786952886167 Eh
Relativity type    : 
Basis              : AO
                                X                 Y                 Z
Electronic contribution:     -0.000000000      -0.000000000      -0.000000000
Nuclear contribution   :      0.000000000       0.000000000       0.000000000
                        -----------------------------------------
Total Dipole Moment    :     -0.000000000      -0.000000000      -0.000000000
                        -----------------------------------------
Magnitude (a.u.)       :      0.000000000
Magnitude (Debye)      :      0.000000000



--------------------
Rotational spectrum 
--------------------
 
Rotational constants in cm-1:             0.000000             0.000000             0.000000 
Rotational constants in MHz :             0.000000             0.000000             0.000000 

Dipole components along the rotational axes: 
x,y,z [a.u.] :    -0.000000    -0.000000    -0.000000 
x,y,z [Debye]:    -0.000000    -0.000000    -0.000000 

 

-------------
DIPOLE MOMENT
-------------

Method             : MDCI(SD)
Type of density    : Electron Density
Multiplicity       :   3
Level              : Linearized density
Irrep              :   0
Energy             :     0.0000000000000000 Eh
Relativity type    : 
Basis              : AO
                                X                 Y                 Z
Electronic contribution:     -0.000000000      -0.000000000       0.000000000
Nuclear contribution   :      0.000000000       0.000000000       0.000000000
                        -----------------------------------------
Total Dipole Moment    :     -0.000000000      -0.000000000       0.000000000
                        -----------------------------------------
Magnitude (a.u.)       :      0.000000000
Magnitude (Debye)      :      0.000000000



--------------------
Rotational spectrum 
--------------------
 
Rotational constants in cm-1:             0.000000             0.000000             0.000000 
Rotational constants in MHz :             0.000000             0.000000             0.000000 

Dipole components along the rotational axes: 
x,y,z [a.u.] :    -0.000000    -0.000000     0.000000 
x,y,z [Debye]:    -0.000000    -0.000000     0.000000 

 

Dipole moment calculation done in   0.0 sec 

Maximum memory used throughout the entire PROP-calculation: 2.2 MB

--------------------------------
SUGGESTED CITATIONS FOR THIS RUN
--------------------------------

Below you find a list of papers that are relevant to this ORCA run
We neither can nor want to force you to cite these papers, but we appreciate if you do
You receive ORCA, which is the product of decades of hard work by many enthusiastic individuals, for free
The only thing we kindly ask in return is that you cite our papers,
We deeply appreciate it, if you show your appreciation for ORCA by not just citing the generic ORCA reference.

Please note that relegating all ORCA citations to the supporting information does *not* help us.
SI sections are not indexed - citations you put there will not count into any citation statistics
But we need these citations in order to attract the funding resources that allow us to do what we are doing

Therefore, if you are a happy ORCA user, please consider citing a few of the papers listed below in the main body of your paper

In addition to the list printed below, the program has created the file /home/ubuntu/Shiwei/qm9_reaction_eng/qm9_orca_work/qm9_orca_work_elem/c/c_mp2_631+gss.bibtex that contains the list in bibtex format
You can import this file easily into all common literature databanks and citation aid programs


List of essential papers. We consider these as the minimum necessary citations

  1. Neese,F.
     Software update: the ORCA program system, version 5.0
     WIRES Comput. Molec. Sci., 2022 12(1)e1606
     doi.org/10.1002/wcms.1606

List of papers to cite with high priority. The work reported in these papers was absolutely
necessary for this run to complete.
Our perspective: the developers of density functionals and basis sets usually get cited in chemistry papers
Good! But without the algorithms to do something with them, the functionals or basis sets would not do anything.
Hence, in our opinion, the algorithm design and method developments papers are equally worthy of getting cited

  1. Neese,F.
     The SHARK Integral Generation and Digestion System
     J. Comp. Chem., 2022  1-16
     doi.org/10.1002/jcc.26942

List of suggested additional citations. These are papers that are important in the 'surrounding' of 
of this run, or papers that preceded the highly important papers. If you like your results we are grateful for a citation.

  1. Neese,F.
     The ORCA program system
     WIRES Comput. Molec. Sci., 2012 2(1)73-78
     doi.org/10.1002/wcms.81
  2. Neese,F.
     Software update: the ORCA program system, version 4.0
     WIRES Comput. Molec. Sci., 2018 8(1)1-6
     doi.org/10.1002/wcms.1327
  3. Neese,F.; Wennmohs,F.; Becker,U.; Riplinger,C.
     The ORCA quantum chemistry program package
     J. Chem. Phys., 2020 152 Art. No. L224108
     doi.org/10.1063/5.0004608

List of optional additional citations

  1. Neese,F.
     Approximate second-order SCF convergence for spin unrestricted wavefunctions
     Chem. Phys. Lett., 2000 325(1-3)93-98
     doi.org/10.1016/s0009-2614(00)00662-x

Timings for individual modules:

Sum of individual times          ...        0.414 sec (=   0.007 min)
Startup calculation              ...        0.051 sec (=   0.001 min)  12.2 %
SCF iterations                   ...        0.094 sec (=   0.002 min)  22.7 %
Property integrals               ...        0.029 sec (=   0.000 min)   7.0 %
Property calculations            ...        0.030 sec (=   0.000 min)   7.2 %
MP2 module                       ...        0.058 sec (=   0.001 min)  14.1 %
MDCI module                      ...        0.150 sec (=   0.002 min)  36.1 %
Orbital localization             ...        0.003 sec (=   0.000 min)   0.7 %
                             ****ORCA TERMINATED NORMALLY****
TOTAL RUN TIME: 0 days 0 hours 0 minutes 0 seconds 457 msec
