
                                 *****************
                                 * O   R   C   A *
                                 *****************

                                            #,                                       
                                            ###                                      
                                            ####                                     
                                            #####                                    
                                            ######                                   
                                           ########,                                 
                                     ,,################,,,,,                         
                               ,,#################################,,                 
                          ,,##########################################,,             
                       ,#########################################, ''#####,          
                    ,#############################################,,   '####,        
                  ,##################################################,,,,####,       
                ,###########''''           ''''###############################       
              ,#####''   ,,,,##########,,,,          '''####'''          '####       
            ,##' ,,,,###########################,,,                        '##       
           ' ,,###''''                  '''############,,,                           
         ,,##''                                '''############,,,,        ,,,,,,###''
      ,#''                                            '''#######################'''  
     '                                                          ''''####''''         
             ,#######,   #######,   ,#######,      ##                                
            ,#'     '#,  ##    ##  ,#'     '#,    #''#        ,####,   ,####,        
            ##       ##  ##   ,#'  ##            #'  '#       #'       #'  '#        
            ##       ##  #######   ##           ,######,      #####,   #    #        
            '#,     ,#'  ##    ##  '#,     ,#' ,#      #,     #,   #   #,  ,#        
             '#######'   ##     ##  '#######'  #'      '#     '####' # '####'        



                #########################################################
                #                        -***-                          #
                #          Department of theory and spectroscopy        #
                #                                                       #
                #                      Frank Neese                      #
                #                                                       #
                #     Directorship, Architecture, Infrastructure        #
                #                    SHARK, DRIVERS                     #
                #        Core code/Algorithms in most modules           #
                #                                                       #
                #        Max Planck Institute fuer Kohlenforschung      #
                #                Kaiser Wilhelm Platz 1                 #
                #                 D-45470 Muelheim/Ruhr                 #
                #                      Germany                          #
                #                                                       #
                #                  All rights reserved                  #
                #                        -***-                          #
                #########################################################


                         Program Version 6.0.1  -  RELEASE   -


 With contributions from (in alphabetic order):
[Max-Planck-Institut fuer Kohlenforschung]                               
  Daniel Aravena         : Magnetic Suceptibility                        
  Michael Atanasov       : Ab Initio Ligand Field Theory (pilot matlab implementation)
  Alexander A. Auer      : GIAO ZORA, VPT2 properties, NMR spectrum      
  Ute Becker             : All parallelization in ORCA, NUMFREQ, NUMCALC 
  Giovanni Bistoni       : ED, misc. LED, open-shell LED, HFLD           
  Martin Brehm           : Molecular dynamics                            
  Dmytro Bykov           : pre 5.0 version of the SCF Hessian            
  Marcos Casanova-Páez   : Triplet and SCS-CIS(D). UHF-(DLPNO)-IP/EA/STEOM-CCSD. UHF-CVS-IP/STEOM-CCSD   
  Vijay G. Chilkuri      : MRCI spin determinant printing, contributions to CSF-ICE 
  Pauline Colinet        : FMM embedding                                 
  Dipayan Datta          : RHF DLPNO-CCSD density                        
  Achintya Kumar Dutta   : EOM-CC, STEOM-CC                              
  Nicolas Foglia         : Exact transition moments, OPA infrastructure, MCD improvements    
  Dmitry Ganyushin       : Spin-Orbit,Spin-Spin,Magnetic field MRCI      
  Miquel Garcia-Rates    : C-PCM and meta-GGA Hessian, CCSD/C-PCM, Gaussian charge scheme 
  Tiago L. C. Gouveia    : GS-ROHF, GS-ROCIS                             
  Yang Guo               : DLPNO-NEVPT2, F12-NEVPT2, CIM, IAO-localization        
  Andreas Hansen         : Spin unrestricted coupled pair/coupled cluster methods 
  Ingolf Harden          : AUTO-CI MPn and infrastructure                
  Benjamin Helmich-Paris : MC-RPA, TRAH-(SCF,CASSCF), AVAS, COSX integrals, SCF dyn. polar. 
  Lee Huntington         : MR-EOM, pCC                                   
  Robert Izsak           : Overlap fitted RIJCOSX, COSX-SCS-MP3, EOM     
  Riya Kayal             : Wick's Theorem for AUTO-CI, AUTO-CI UHF-CCSDT 
  Emily Kempfer          : AUTO-CI, RHF CISDT and CCSDT                  
  Christian Kollmar      : KDIIS, OOCD, Brueckner-CCSD(T), CCSD density, CASPT2, CASPT2-K, improved NEVPT2 
  Axel Koslowski         : Symmetry handling                             
  Simone Kossmann        : meta-GGA functionals, TD-DFT gradient, OOMP2, (MP2 Hessian; deprecated post 5.0) 
  Lucas Lang             : DCDCAS                                        
  Marvin Lechner         : AUTO-CI (C++ implementation), FIC-MRCC        
  Spencer Leger          : CASSCF response                               
  Dagmar Lenk            : GEPOL surface, SMD, ORCA-2-JSON               
  Dimitrios Liakos       : Extrapolation schemes; Compound Job, initial MDCI parallelization 
  Dimitrios Manganas     : Further ROCIS development; embedding schemes. LFT, Crystal Embedding 
  Dimitrios Pantazis     : SARC Basis sets                               
  Anastasios Papadopoulos: AUTO-CI, single reference methods and gradients 
  Taras Petrenko         : pre 6.0 DFT Hessian and TD-DFT gradient, (ASA, deprecated), ECA, 1-Electron XAS/XES, NRVS 
  Peter Pinski           : DLPNO-MP2, DLPNO-MP2 Gradient                 
  Christoph Reimann      : Effective Core Potentials                     
  Marius Retegan         : Local ZFS, SOC                                
  Christoph Riplinger    : Optimizer, TS searches, QM/MM, DLPNO-CCSD(T), (RO)-DLPNO pert. Triples 
  Michael Roemelt        : Original ROCIS implementation                 
  Masaaki Saitow         : Open-shell DLPNO-CCSD energy and density      
  Barbara Sandhoefer     : DKH picture change effects                    
  Kantharuban Sivalingam : CASSCF convergence/infrastructure, NEVPT2 and variants, FIC-MRCI 
  Bernardo de Souza      : ESD, SOC TD-DFT                               
  Georgi L. Stoychev     : AutoAux, RI-MP2 NMR, DLPNO-MP2 response, X2C  
  Van Anh Tran           : RI-MP2 g-tensors                              
  Willem Van den Heuvel  : Paramagnetic NMR                              
  Zikuan Wang            : NOTCH, Electric field optimization            
  Frank Wennmohs         : Technical directorship and infrastructure     
  Hang Xu                : AUTO-CI-Response properties                   
                                                                         
[FACCTs GmbH]                                                            
  Markus Bursch, Miquel Garcia-Rates, Christoph Riplinger, Bernardo de Souza, Georgi L. Stoychev 
                                                                 
  APM, Basis sets (HGBS, AHGBS, def-TZVP (Ac-Lr), def2-XVPD (La-Lu)), CI-OPT, improved COSX, DLPNO-Multilevel,           
  DOCKER, DRACO, updates on ESD, GOAT, IRC, LR-CPCM, MBIS, meta-GGA TD-DFT gradient, ML-optimized integration grids, 
  MM, NACMEs, nearIR, NEB, NEB-TS, NL-DFT gradient (VV10), 2- and 3-layer-ONIOM, interface openCOSMO-RS, QMMM,   
  Crystal-QMMM, SF, symmetry and pop. for TD-DFT, r2SCAN hybrids, SOLVATOR                                   
                                                                         
[Other institutions]                                                     
  V. Asgeirsson          : NEB                                           
  Christoph Bannwarth    : sTDA-DFT, sTD-DFT, PBEh-3c, B97-3c, D3        
  Sebastian Ehlert       : rSCAN, r2SCAN, r2SCAN-3c, D4, dhf basis sets  
  Marvin Friede          : D4 for Fr, Ra, Ac-Lr                          
  Lars Goerigk           : TD-DFT with DH, B97 family of functionals     
  Stefan Grimme          : VdW corrections, initial TS optimization, DFT functionals, gCP, sTDA/sTD-DF 
  Waldemar Hujo          : DFT-NL                                        
  H. Jonsson             : NEB                                           
  Holger Kruse           : gCP                                           
  Marcel Mueller         : wB97X-3c, vDZP basis set                      
  Hagen Neugebauer       : wr2SCAN                                       
  Tobias Risthaus        : range-separated hybrid DFT                    
  Lukas Wittmann         : regularized MP2, r2SCAN double-hybrids, wr2SCAN        
                                                                         
We gratefully acknowledge several colleagues who have allowed us to      
interface, adapt or use parts of their codes:                            
  Ed Valeev, F. Pavosevic, A. Kumar             : LibInt (2-el integral package), F12 methods 
  Garnet Chan, S. Sharma, J. Yang, R. Olivares  : DMRG                   
  Ulf Ekstrom                                   : XCFun DFT Library      
  Mihaly Kallay                                 : mrcc  (arbitrary order and MRCC methods)
  Frank Weinhold                                : gennbo (NPA and NBO analysis)           
  Simon Mueller                                 : openCOSMO-RS                            
  Christopher J. Cramer and Donald G. Truhlar   : smd solvation model                     
  S Lehtola, MJT Oliveira, MAL Marques          : LibXC Library                           
  Liviu Ungur et al                             : ANISO software                          


 Your calculation uses the libint2 library for the computation of 2-el integrals
 For citations please refer to: http://libint.valeyev.net

 Your ORCA version has been built with support for libXC version: 6.2.2
 For citations please refer to: https://libxc.gitlab.io

 This ORCA versions uses:
   CBLAS   interface :  Fast vector & matrix operations
   LAPACKE interface :  Fast linear algebra routines
   SCALAPACK package :  Parallel linear algebra routines
   Shared memory     :  Shared parallel matrices
   BLAS/LAPACK       :  OpenBLAS 0.3.27  USE64BITINT DYNAMIC_ARCH NO_AFFINITY Haswell SINGLE_THREADED
        Core in use  :  Haswell
   Copyright (c) 2011-2014, The OpenBLAS Project


NOTE: MaxCore=8000 MB was set to SCF,MP2,MDCI,CIPSI,MRCI and CIS
      => If you want to overwrite this, your respective input block should be placed after the MaxCore statement
================================================================================

----- Orbital basis set information -----
Your calculation utilizes the basis: 6-31G
   H-He, Li-Ne : W. J. Hehre, R. Ditchfield and J.A. Pople, J. Chem. Phys. 56, 2257 (1972).
                 Note: He and Ne are unpublished basis sets taken from the Gaussian program.
                 Note: Li and B from J. D. Dill and J. A. Pople, J. Chem. Phys. 62, 2921 (1975).
   Na - Ar     : M. M. Francl, W. J. Pietro, W. J. Hehre, J. S. Binkley, M. S. Gordon, 
                 D. J. DeFrees and J. A. Pople, J. Chem. Phys. 77, 3654 (1982).
   K - Zn      : V. A. Rassolov, J. A. Pople, M. A. Ratner, and T. L. Windus, J. Chem. Phys. 109, 1223 (1998).

----- AuxC basis set information -----
Your calculation utilizes the auxiliary basis: def2-SVP/C
  H-La, Hf-Rn : A. Hellweg, C. Hattig, S. Hofener and W. Klopper, Theor. Chem. Acc. 117, 587 (2007).
        Ce-Lu : J. Chmela and M. E. Harding, Mol. Phys. (2018).

================================================================================
                                        WARNINGS
                       Please study these warnings very carefully!
================================================================================


WARNING: your system is open-shell and RHF/RKS was chosen
  ===> : WILL SWITCH to UHF/UKS

NOTE: KCOpt==AO/AOBLAs is not implemented for UHF based MDCI. Switching to AOX.
      Do not worry about the results, this is just for your information

WARNING: No MP2 level density has been requested!
         To calculate MP2 level properties use
         %mp2 Density relaxed end
         or
         %mp2 Density unrelaxed end

WARNING: Post HF methods need fully converged wavefunctions
  ===> : Setting SCFConvForced true
         You can overwrite this default with %scf ConvForced false 


WARNING: MDCI localization with Augmented Hessian Foster-Boys
  ===> : Switching off randomization!

WARNING: UseCISUpdate is  only available for RHF calculations...
  ===> : Setting UseCISUpdate = false 

================================================================================
                                       INPUT FILE
================================================================================
NAME = /home/ubuntu/Shiwei/qm9_reaction_eng/qm9_orca_work/qm9_orca_work_elem/c/c_mp2_631g.inp
|  1> ! RI-MP2 6-31G def2-SVP/C
|  2> %maxcore 8000
|  3> 
|  4> %method
|  5> FrozenCore FC_ELECTRONS
|  6> end
|  7> 
|  8> %mdci
|  9>   TCutPairs  1e-6
| 10>   printlevel 4
| 11> end
| 12> 
| 13> %loc
| 14> LocMet AHFB
| 15> OCC true
| 16> end
| 17> 
| 18> *xyz 0 3
| 19> C 0.0 0.0 0.0
| 20> *
| 21> 
| 22>                          ****END OF INPUT****
================================================================================

                       ****************************
                       * Single Point Calculation *
                       ****************************

---------------------------------
CARTESIAN COORDINATES (ANGSTROEM)
---------------------------------
  C      0.000000    0.000000    0.000000

----------------------------
CARTESIAN COORDINATES (A.U.)
----------------------------
  NO LB      ZA    FRAG     MASS         X           Y           Z
   0 C     6.0000    0    12.011    0.000000    0.000000    0.000000

--------------------------------
INTERNAL COORDINATES (ANGSTROEM)
--------------------------------
 C      0   0   0     0.000000000000     0.00000000     0.00000000

---------------------------
INTERNAL COORDINATES (A.U.)
---------------------------
 C      0   0   0     0.000000000000     0.00000000     0.00000000

---------------------
BASIS SET INFORMATION
---------------------
There are 1 groups of distinct atoms

 Group   1 Type C   : 10s4p contracted to 3s2p pattern {631/31}

Atom   0C    basis set group =>   1
---------------------------------
AUXILIARY/C BASIS SET INFORMATION
---------------------------------
There are 1 groups of distinct atoms

 Group   1 Type C   : 8s6p5d3f contracted to 6s5p4d1f pattern {311111/21111/2111/3}

Atom   0C    basis set group =>   1

Checking for AutoStart:
The File: /home/ubuntu/Shiwei/qm9_reaction_eng/qm9_orca_work/qm9_orca_work_elem/c/c_mp2_631g.gbw exists
Trying to determine its content:
     ... Fine, the file contains calculation information
     ... Fine, the calculation information was read
     ... Fine, the file contains a basis set
     ... Fine, the basis set was read
     ... Fine, the file contains a geometry
     ... Fine, the geometry was read
     ... Fine, the file contains a set of orbitals
     ... Fine, the orbitals can be read
     => possible old guess file was deleted
     => GBW file was renamed to GES file
     => GES file is set as startup file
     => Guess is set to MORead
     ... now leaving AutoStart

------------------------------------------------------------------------------
                             ORCA STARTUP CALCULATIONS
------------------------------------------------------------------------------
------------------------------------------------------------------------------
                   ___                                                        
                  /   \      - P O W E R E D   B Y -                         
                 /     \                                                     
                 |  |  |   _    _      __       _____    __    __             
                 |  |  |  | |  | |    /  \     |  _  \  |  |  /  |          
                  \  \/   | |  | |   /    \    | | | |  |  | /  /          
                 / \  \   | |__| |  /  /\  \   | |_| |  |  |/  /          
                |  |  |   |  __  | /  /__\  \  |    /   |      \           
                |  |  |   | |  | | |   __   |  |    \   |  |\   \          
                \     /   | |  | | |  |  |  |  | |\  \  |  | \   \       
                 \___/    |_|  |_| |__|  |__|  |_| \__\ |__|  \__/        
                                                                              
                      - O R C A' S   B I G   F R I E N D -                    
                                      &                                       
                       - I N T E G R A L  F E E D E R -                       
                                                                              
 v1 FN, 2020, v2 2021, v3 2022-2024                                           
------------------------------------------------------------------------------


----------------------
SHARK INTEGRAL PACKAGE
----------------------

Number of atoms                             ...      1
Number of basis functions                   ...      9
Number of shells                            ...      5
Maximum angular momentum                    ...      1
Integral batch strategy                     ... SHARK/LIBINT Hybrid
RI-J (if used) integral strategy            ... SPLIT-RIJ (Revised 2003 algorithm where possible)
Printlevel                                  ...      1
Contraction scheme used                     ... SEGMENTED contraction
Prescreening option                         ... SCHWARTZ
   Thresh                                   ... 1.000e-10
   Tcut                                     ... 1.000e-11
   Tpresel                                  ... 1.000e-11 
Coulomb Range Separation                    ... NOT USED
Exchange Range Separation                   ... NOT USED
Multipole approximations                    ... NOT USED
Finite Nucleus Model                        ... NOT USED
CABS basis                                  ... NOT available
Auxiliary Coulomb fitting basis             ... NOT available
Auxiliary J/K fitting basis                 ... NOT available
Auxiliary Correlation fitting basis         ... AVAILABLE
   # of basis functions in Aux-C            ...     48
   # of shells in Aux-C                     ...     16
   Maximum angular momentum in Aux-C        ...      3
Auxiliary 'external' fitting basis          ... NOT available

Checking pre-screening integrals            ... done (  0.0 sec) Dimension = 5
Check shell pair data                       ... done (  0.0 sec)
Shell pair information
Shell pair cut-off parameter TPreSel        ...   1.0e-11
Total number of shell pairs                 ...        15
Shell pairs after pre-screening             ...        15
Total number of primitive shell pairs       ...       126
Primitive shell pairs kept                  ...       126
          la=0 lb=0:      6 shell pairs
          la=1 lb=0:      6 shell pairs
          la=1 lb=1:      3 shell pairs

Calculating one electron integrals          ... done (  0.0 sec)
Calculating RI/C V-Matrix + Cholesky decomp.... done (  0.0 sec)
Calculating Nuclear repulsion               ... done (  0.0 sec) ENN=      0.000000000000 Eh

Diagonalization of the overlap matrix:
Smallest eigenvalue                        ... 1.869e-01
Time for diagonalization                   ...    0.002 sec
Threshold for overlap eigenvalues          ... 1.000e-07
Number of eigenvalues below threshold      ... 0
Time for construction of square roots      ...    0.000 sec
Total time needed                          ...    0.002 sec

-------------------
DFT GRID GENERATION
-------------------

General Integration Accuracy     IntAcc      ... 4.388
Radial Grid Type                 RadialGrid  ... OptM3 with GC (2021)
Angular Grid (max. ang.)         AngularGrid ... 4 (Lebedev-302)
Angular grid pruning method      GridPruning ... 4 (adaptive)
Weight generation scheme         WeightScheme... mBecke (2022)
Basis function cutoff            BFCut       ... 1.0000e-10
Integration weight cutoff        WCut        ... 1.0000e-14
Partially contracted basis set               ... off
Rotationally invariant grid construction     ... off
Angular grids for H and He will be reduced by one unit

Total number of grid points                  ...     6136
Total number of batches                      ...       96
Average number of points per batch           ...       63
Average number of grid points per atom       ...     6136
Initializing property integral containers    ... done (  0.0 sec)

SHARK setup successfully completed in   0.0 seconds

Maximum memory used throughout the entire STARTUP-calculation: 6.5 MB
-------------------------------------------------------------------------------
                                 ORCA GUESS
                   Start orbitals & Density for SCF / CASSCF
-------------------------------------------------------------------------------

------------
SCF SETTINGS
------------
Hamiltonian:
 Ab initio Hamiltonian  Method          .... Hartree-Fock(GTOs)


General Settings:
 Integral files         IntName         .... /home/ubuntu/Shiwei/qm9_reaction_eng/qm9_orca_work/qm9_orca_work_elem/c/c_mp2_631g
 Hartree-Fock type      HFTyp           .... UHF
 Total Charge           Charge          ....    0
 Multiplicity           Mult            ....    3
 Number of Electrons    NEL             ....    6
 Basis Dimension        Dim             ....    9
 Nuclear Repulsion      ENuc            ....      0.0000000000 Eh

Convergence Acceleration:
 AO-DIIS                CNVDIIS         .... on
   Start iteration      DIISMaxIt       ....    12
   Startup error        DIISStart       ....  0.200000
   # of expansion vecs  DIISMaxEq       ....     5
   Bias factor          DIISBfac        ....   1.050
   Max. coefficient     DIISMaxC        ....  10.000
 MO-DIIS                CNVKDIIS        .... off
 Trust-Rad. Augm. Hess. CNVTRAH         .... auto
   Auto Start mean grad. ratio tolernc. ....  1.125000
   Auto Start start iteration           ....     1
   Auto Start num. interpolation iter.  ....    10
   Max. Number of Micro iterations      ....    24
   Max. Number of Macro iterations      .... Maxiter - #DIIS iter
   Number of Davidson start vectors     ....     2
   Converg. threshold    (grad. norm)   ....   5.000e-05
   Grad. Scal. Fac. for Micro threshold ....   0.100
   Minimum threshold for Micro iter.    ....   1.000e-02
   NR start threshold (gradient norm)   ....   1.000e-04
   Initial trust radius                 ....   0.400
   Minimum AH scaling param. (alpha)    ....   1.000
   Maximum AH scaling param. (alpha)    .... 1000.000
   Quad. conv. algorithm                .... NR
   White noise on init. David. guess    .... on
   Maximum white noise                  ....   0.010
   Pseudo random numbers                .... off
   Inactive MOs                         .... canonical
   Orbital update algorithm             .... Taylor
   Preconditioner                       .... Diag
   Full preconditioner red. dimension   ....   250
 SOSCF                  CNVSOSCF        .... on
   Start iteration      SOSCFMaxIt      ....   150
   Startup grad/error   SOSCFStart      ....  0.003300
   Hessian update       SOSCFHessUp     .... L-BFGS
 Level Shifting         CNVShift        .... on
   Level shift para.    LevelShift      ....    0.2500
   Turn off err/grad.   ShiftErr        ....    0.0010
 Zerner damping         CNVZerner       .... off
 Static damping         CNVDamp         .... on
   Fraction old density DampFac         ....    0.7000
   Max. Damping (<1)    DampMax         ....    0.9800
   Min. Damping (>=0)   DampMin         ....    0.0000
   Turn off err/grad.   DampErr         ....    0.1000

SCF Procedure:
 Maximum # iterations   MaxIter         ....   125
 SCF integral mode      SCFMode         .... Direct
   Integral package                     .... SHARK and LIBINT hybrid scheme
 Reset frequency        DirectResetFreq ....    20
 Integral Threshold     Thresh          ....  1.000e-10 Eh
 Primitive CutOff       TCut            ....  1.000e-11 Eh

Convergence Tolerance:
 Convergence Check Mode ConvCheckMode   .... Total+1el-Energy
 Convergence forced     ConvForced      .... 1
 Energy Change          TolE            ....  1.000e-06 Eh
 1-El. energy change                    ....  1.000e-03 Eh
 Orbital Gradient       TolG            ....  5.000e-05
 Orbital Rotation angle TolX            ....  5.000e-05
 DIIS Error             TolErr          ....  1.000e-06

---------------------
INITIAL GUESS: MOREAD
---------------------
Guess MOs are being read from file: /home/ubuntu/Shiwei/qm9_reaction_eng/qm9_orca_work/qm9_orca_work_elem/c/c_mp2_631g.ges
Input Geometry matches current geometry (good)
Input basis set matches current basis set (good)
MOs were renormalized
MOs were reorthogonalized (Cholesky)
                      ------------------
                      INITIAL GUESS DONE (   0.0 sec)
                      ------------------
             **** ENERGY FILE WAS UPDATED (/home/ubuntu/Shiwei/qm9_reaction_eng/qm9_orca_work/qm9_orca_work_elem/c/c_mp2_631g.en.tmp) ****
Finished Guess after   0.0 sec
Maximum memory used throughout the entire GUESS-calculation: 3.1 MB

-------------------------------------------------------------------------------------------
                                      ORCA LEAN-SCF
                              memory conserving SCF solver
-------------------------------------------------------------------------------------------

----------------------------------------D-I-I-S--------------------------------------------
Iteration    Energy (Eh)           Delta-E    RMSDP     MaxDP     DIISErr   Damp  Time(sec)
-------------------------------------------------------------------------------------------
               ***  Starting incremental Fock matrix formation  ***
                              *** Initializing SOSCF ***
---------------------------------------S-O-S-C-F--------------------------------------
Iteration    Energy (Eh)           Delta-E    RMSDP     MaxDP     MaxGrad    Time(sec)
--------------------------------------------------------------------------------------
    1    -37.6778370347715068     0.00e+00  8.55e-07  4.14e-06  5.59e-07     0.0
               *** Restarting incremental Fock matrix formation ***
    2    -37.6778370348006106    -2.91e-11  2.24e-07  1.23e-06  1.05e-06     0.0
                  *** Gradient check signals convergence ***

               *****************************************************
               *                     SUCCESS                       *
               *           SCF CONVERGED AFTER   2 CYCLES          *
               *****************************************************

             **** ENERGY FILE WAS UPDATED (/home/ubuntu/Shiwei/qm9_reaction_eng/qm9_orca_work/qm9_orca_work_elem/c/c_mp2_631g.en.tmp) ****

----------------
TOTAL SCF ENERGY
----------------

Total Energy       :        -37.67783703480061 Eh           -1025.26607 eV

Components:
Nuclear Repulsion  :          0.00000000000000 Eh               0.00000 eV
Electronic Energy  :        -37.67783703480061 Eh           -1025.26607 eV
One Electron Energy:        -50.47896833630346 Eh           -1373.60256 eV
Two Electron Energy:         12.80113130150285 Eh             348.33649 eV

Virial components:
Potential Energy   :        -75.37372920855864 Eh           -2051.02344 eV
Kinetic Energy     :         37.69589217375804 Eh            1025.75737 eV
Virial Ratio       :          1.99952103165846

---------------
SCF CONVERGENCE
---------------

  Last Energy change         ...    2.9104e-11  Tolerance :   1.0000e-06
  Last MAX-Density change    ...    1.2261e-06  Tolerance :   1.0000e-05
  Last RMS-Density change    ...    2.2375e-07  Tolerance :   1.0000e-06
  Last DIIS Error            ...    2.1959e-06  Tolerance :   1.0000e-06
  Last Orbital Gradient      ...    1.0472e-06  Tolerance :   5.0000e-05
  Last Orbital Rotation      ...    6.6283e-07  Tolerance :   5.0000e-05


----------------------
UHF SPIN CONTAMINATION
----------------------

Expectation value of <S**2>     :     2.002047
Ideal value S*(S+1) for S=1.0   :     2.000000
Deviation                       :     0.002047

----------------
ORBITAL ENERGIES
----------------
                 SPIN UP ORBITALS
  NO   OCC          E(Eh)            E(eV) 
   0   1.0000     -11.337454      -308.5078 
   1   1.0000      -0.818865       -22.2824 
   2   1.0000      -0.426826       -11.6145 
   3   1.0000      -0.426826       -11.6145 
   4   0.0000       0.049777         1.3545 
   5   0.0000       0.707928        19.2637 
   6   0.0000       0.707928        19.2637 
   7   0.0000       0.761035        20.7088 
   8   0.0000       0.785069        21.3628 

                 SPIN DOWN ORBITALS
  NO   OCC          E(Eh)            E(eV) 
   0   1.0000     -11.292498      -307.2845 
   1   1.0000      -0.574237       -15.6258 
   2   0.0000       0.102788         2.7970 
   3   0.0000       0.155185         4.2228 
   4   0.0000       0.155185         4.2228 
   5   0.0000       0.820151        22.3174 
   6   0.0000       0.834969        22.7207 
   7   0.0000       0.869433        23.6585 
   8   0.0000       0.869433        23.6585 
*Only the first 10 virtual orbitals were printed.

                    ********************************
                    * MULLIKEN POPULATION ANALYSIS *
                    ********************************

--------------------------------------------
MULLIKEN ATOMIC CHARGES AND SPIN POPULATIONS
--------------------------------------------
   0 C :    0.000000    2.000000
Sum of atomic charges         :    0.0000000
Sum of atomic spin populations:    2.0000000

-----------------------------------------------------
MULLIKEN REDUCED ORBITAL CHARGES AND SPIN POPULATIONS
-----------------------------------------------------
CHARGE
  0 C s       :     4.000000  s :     4.000000
      pz      :     0.500521  p :     2.000000
      px      :     1.000000
      py      :     0.499479


SPIN
  0 C s       :    -0.000000  s :    -0.000000
      pz      :     0.500521  p :     2.000000
      px      :     1.000000
      py      :     0.499479



                     *******************************
                     * LOEWDIN POPULATION ANALYSIS *
                     *******************************

-------------------------------------------
LOEWDIN ATOMIC CHARGES AND SPIN POPULATIONS
-------------------------------------------
   0 C :   -0.000000    2.000000

----------------------------------------------------
LOEWDIN REDUCED ORBITAL CHARGES AND SPIN POPULATIONS
----------------------------------------------------
CHARGE
  0 C s       :     4.000000  s :     4.000000
      pz      :     0.500521  p :     2.000000
      px      :     1.000000
      py      :     0.499479


SPIN
  0 C s       :    -0.000000  s :    -0.000000
      pz      :     0.500521  p :     2.000000
      px      :     1.000000
      py      :     0.499479



                      *****************************
                      * MAYER POPULATION ANALYSIS *
                      *****************************

  NA   - Mulliken gross atomic population
  ZA   - Total nuclear charge
  QA   - Mulliken gross atomic charge
  VA   - Mayer's total valence
  BVA  - Mayer's bonded valence
  FA   - Mayer's free valence

  ATOM       NA         ZA         QA         VA         BVA        FA
  0 C      6.0000     6.0000     0.0000     2.0041     0.0000     2.0041

  Mayer bond orders larger than 0.100000
  => no bond orders to print

-------
TIMINGS
-------

Total SCF time: 0 days 0 hours 0 min 0 sec 

Total time                  ....       0.026 sec
Sum of individual times     ....       0.024 sec  ( 89.9%)

SCF preparation             ....       0.016 sec  ( 60.5%)
Fock matrix formation       ....       0.004 sec  ( 14.3%)
  Startup                   ....       0.000 sec  (  6.3% of F)
  Coulomb+Exchange Fock     ....       0.003 sec  ( 82.9% of F)
Diagonalization             ....       0.000 sec  (  0.0%)
Density matrix formation    ....       0.000 sec  (  1.0%)
Total Energy calculation    ....       0.000 sec  (  0.2%)
Population analysis         ....       0.001 sec  (  4.7%)
Orbital Transformation      ....       0.001 sec  (  2.2%)
Orbital Orthonormalization  ....       0.000 sec  (  0.0%)
DIIS solution               ....       0.001 sec  (  4.7%)
SOSCF solution              ....       0.001 sec  (  2.1%)
Finished LeanSCF after   0.0 sec

Maximum memory used throughout the entire LEANSCF-calculation: 6.2 MB

------------------------------------------------------------------------------
                         ORCA PROPERTY INTEGRAL CALCULATIONS
------------------------------------------------------------------------------

GBWName                                   ... /home/ubuntu/Shiwei/qm9_reaction_eng/qm9_orca_work/qm9_orca_work_elem/c/c_mp2_631g.gbw
Number of atoms                           ...      1
Number of basis functions                 ...      9
Max core memory                           ...   8000 MB

Dipole integrals                          ... YES
Quadrupole integrals                      ...  NO
Linear momentum integrals                 ... YES
Angular momentum integrals                ... YES
Higher moments length integrals           ...  NO
Higher moments velocity integrals         ...  NO
Kinetic energy integrals                  ...  NO
GIAO right hand sides                     ...  NO
GIAO dipole derivative integrals          ...  NO
SOC integrals                             ...  NO
EPR diamagnetic integrals (GIAO)          ...  NO
EPR gauge integrals                       ...  NO
Field gradient integrals                  ...  NO (   0 nuclei)
Spin-dipole/Fermi contact integrals       ...  NO (   0 nuclei)
Contact density integrals                 ...  NO (   0 nuclei)
Nucleus-orbit integrals                   ...  NO (   0 nuclei)
Geometric perturbations                   ...  NO (   1 nuclei)

Choice of electric origin   ... Center of mass
Position of electric origin ... (  0.0000,  0.0000,  0.0000) 
Choice of magnetic origin   ... GIAO
Position of magnetic origin ... (  0.0000,  0.0000,  0.0000) 

Calculating integrals                     ... Electric Dipole (Length)     done (  0.0 sec)
Calculating integrals                     ... Linear Momentum              done (  0.0 sec)
Calculating integrals                     ... Angular Momentum  (ElOri)    done (  0.0 sec)

Property integrals calculated in   0.0 sec

Maximum memory used throughout the entire PROPINT-calculation: 3.2 MB
------------------------------------------------------------------------------
                           ORCA ORBITAL LOCALIZATION
------------------------------------------------------------------------------

Input orbitals are from                  ... /home/ubuntu/Shiwei/qm9_reaction_eng/qm9_orca_work/qm9_orca_work_elem/c/c_mp2_631g.gbw
Output orbitals are to                   ... /home/ubuntu/Shiwei/qm9_reaction_eng/qm9_orca_work/qm9_orca_work_elem/c/c_mp2_631g.loc
Max. number of iterations                ... 128
Localizations seeded randomly            ... on
Convergence tolerance                    ... 1.000e-06
Threshold for strong local MOs           ... 9.500e-01
Threshold for bond MOs                   ... 8.500e-01
Operator                                 ... 0
Orbital range for localization           ... 1 to 3
Localization criterion                   ... FOSTER-BOYS (AUGMENTED HESSIAN)
Doing the dipole integrals     ... o.k.
Initial value of the localization sum :     0.000000
ITERATION   0 : L=    2.1959356603 DL=  2.20e+00 (AVERGE_DL)=    0.8555574519 
ITERATION   1 : L=    2.2302471550 DL=  3.43e-02 (AVERGE_DL)=    0.1069446815 
ITERATION   2 : L=    2.2307832721 DL=  5.36e-04 (AVERGE_DL)=    0.0133680852 
ITERATION   3 : L=    2.2307916490 DL=  8.38e-06 (AVERGE_DL)=    0.0016710106 
ITERATION   4 : L=    2.2307917798 DL=  1.31e-07 (AVERGE_DL)=    0.0002088763 
LOCALIZATION SUM CONVERGED

------------------------------------------------------
AUGMENTED HESSIAN OPTIMIZATION OF FOSTER-BOYS ORBITALS
------------------------------------------------------

Spin operator:           0
Orbital window:          1 to 3
Number of iterations:    128
Gradient tolerance:      1.000e-06
Number of pairs:         3
Davidson threshold:      2000
Diagonalization method:  LAPACK
Iter:    0   L: 2.2307917798   Grad. norm: 1.925517e-04
   *** Likely close to a maximum now. ***
       Augmented Hessian eigenvalues:  4.16e-09  1.04e-09 -8.92e+00 -8.92e+00
Iter:    1   L: 2.2307917819   Grad. norm: 4.407832e-09
LOCALIZATION HAS CONVERGED.

Eigenvalues of the Hessian:
  0 -4.831e-16
  1 -8.923e+00
  2 -8.923e+00


--------------------------------------------------------------------------------
                    LOCALIZED MOLECULAR ORBITAL COMPOSITIONS
--------------------------------------------------------------------------------

The Mulliken populations for each LMO on each atom are computed
The LMO`s will be ordered according to atom index and type
  (A) Strongly localized MO`s have populations of >=0.950 on one atom
  (B) Two center bond orbitals have populations of >=0.850 on two atoms
  (C) Other MO`s are considered to be `delocalized`

FOUND  -   3 strongly local MO`s
       -   0 two center bond MO`s
       -   0 significantly delocalized MO`s

Rather strongly localized orbitals:
MO   3:   0C  -   1.000000
MO   2:   0C  -   1.000000
MO   1:   0C  -   1.000000
Localized MO's were stored in: /home/ubuntu/Shiwei/qm9_reaction_eng/qm9_orca_work/qm9_orca_work_elem/c/c_mp2_631g.loc
------------------------------------------------------------------------------
                           ORCA ORBITAL LOCALIZATION
------------------------------------------------------------------------------

Input orbitals are from                  ... /home/ubuntu/Shiwei/qm9_reaction_eng/qm9_orca_work/qm9_orca_work_elem/c/c_mp2_631g.loc
Output orbitals are to                   ... /home/ubuntu/Shiwei/qm9_reaction_eng/qm9_orca_work/qm9_orca_work_elem/c/c_mp2_631g.loc
Max. number of iterations                ... 128
Localizations seeded randomly            ... on
Convergence tolerance                    ... 1.000e-06
Threshold for strong local MOs           ... 9.500e-01
Threshold for bond MOs                   ... 8.500e-01
Operator                                 ... 1
Orbital range for localization           ... 1 to 1
Localization criterion                   ... FOSTER-BOYS (AUGMENTED HESSIAN)
Doing the dipole integrals     ... o.k.

ORCA_LOC: ONLY ONE ORBITAL - SKIPPING LOCALIZATION


--------------------------------------------------------------------------------
                    LOCALIZED MOLECULAR ORBITAL COMPOSITIONS
--------------------------------------------------------------------------------

The Mulliken populations for each LMO on each atom are computed
The LMO`s will be ordered according to atom index and type
  (A) Strongly localized MO`s have populations of >=0.950 on one atom
  (B) Two center bond orbitals have populations of >=0.850 on two atoms
  (C) Other MO`s are considered to be `delocalized`

FOUND  -   1 strongly local MO`s
       -   0 two center bond MO`s
       -   0 significantly delocalized MO`s

Rather strongly localized orbitals:
MO   1:   0C  -   1.000000
Localized MO's were stored in: /home/ubuntu/Shiwei/qm9_reaction_eng/qm9_orca_work/qm9_orca_work_elem/c/c_mp2_631g.loc

------------------------------------------------------------------------------
                                ORCA  MP2 
------------------------------------------------------------------------------

Freezing NCore=2 chemical core electrons

-------------
RI-MP2 ENERGY
-------------
Dimension of the orbital basis            ...    9
Dimension of the AuxC basis               ...   48
Memory devoted to MP2                     ... 8000 MB   
Data format for matrix containers         ... DOUBLE
Compression type for matrix containers    ... UNCOMPRESSED

-----------------------
SHARK RI TRANSFORMATION
-----------------------

Number of basis functions                ...      9
Number of aux functions                  ...     48
Number of operators                      ...      2
Generation of IJK                        ... NO
Generation of IAK                        ... YES
Generation of ABK                        ... NO
Orbital Range Operator  0:    1-   3 to    4-   8

Orbital Range Operator  1:    1-   1 to    2-   8

Aux basis identifier                     ...   AUXC
Contraction scheme used                  ... SEGMENTED
Do orthogonalization                     ... YES
All operator combinations                ... NO
Transpose (ia|K)                         ... NO
Integral generator used                  ... LIBINT
Starting integral generation + trafo... 
Half trafo (segmented) done. Total time =  0.0 sec. integrals=  0.0 sec trafo=  0.0 sec
Integral generation and half transformation done (  0.0 sec)

Reading or making V^(-1/2)          ... done (  0.0 sec)
Sorting IAK integrals               ... done (  0.0 sec)
Sorting IAK integrals               ... done (  0.0 sec)

SHARK RI integral transformation done. Total time =  0.0 sec.

Opening buffers                              ... done

Starting loop over batches of integrals:

Operator 0  - window                       ... (  1-  3)x(  4-  8)
Operator 0  - Memory available             ...  8000 MB
Operator 0  - Memory needed per MO         ...   0.0 MB
Operator 0  - Number of orbitals per batch ... 3
Operator 0  - Number of batches            ... 1

OPERATOR  0   PASS   0:  MOs     1 ...    3
  Reading integrals       ... ok
  Internal MO   3

Operator 1  - window                       ... (  1-  1)x(  2-  8)
Operator 1  - Memory available             ...  8000 MB
Operator 1  - Memory needed per MO         ...   0.0 MB
Operator 1  - Number of orbitals per batch ... 1
Operator 1  - Number of batches            ... 1

OPERATOR  1   PASS   0:  MOs     1 ...    1
  Reading integrals       ... ok
Time spent in pair loops =     0.000 sec
Deleting buffers (Ka|jb) ...done

Correlation energy components}
 E2 for alpha/alpha pairs :     -0.004310869 Eh
 E2 for beta/beta   pairs :      0.000000000 Eh
 E2 for alpha/beta  pairs :     -0.019065765 Eh


-----------------------------------------------
 RI-MP2 CORRELATION ENERGY:     -0.023376634 Eh
-----------------------------------------------


-------
TIMINGS
-------

Total time                :    0.034 sec
Integral trafo            :    0.032 sec ( 93.6%)
V**(-1/2)                 :    0.002 sec (  5.9%)


---------------------------------------
MP2 TOTAL ENERGY:      -37.701213669 Eh
---------------------------------------

Maximum memory used throughout the entire MP2-calculation: 8.8 MB


--------------------------------------------------------------------------------
                             ORCA-MATRIX DRIVEN CI
--------------------------------------------------------------------------------

--------------------------------
AUTOMATIC CHOICE OF INCORE LEVEL
--------------------------------

Memory available                           ...   4000.00 MB
Memory needed for S+T                      ...      0.00 MB
Memory needed for J+K                      ...      0.01 MB
Memory needed for DIIS                     ...      0.03 MB
Memory needed for 3-ext                    ...      0.00 MB
Memory needed for 4-ext                    ...      0.00 MB
Memory needed for triples                  ...      0.00 MB
 -> Final InCoreLevel    ... 5

Wavefunction type
-----------------
Correlation treatment                      ...     QCISD     
Single excitations                         ... ON
Orbital optimization                       ... OFF
Calculation of Z vector                    ... OFF
Calculation of Brueckner orbitals          ... OFF
Perturbative triple excitations            ... OFF
Calculation of F12 correction              ... OFF
Frozen core treatment                      ... chemical core (2 el)
Reference Wavefunction                     ... UHF
  Alpha-MOs occ    :     1 ...    3 (  3 MO's/  3 electrons)
  Beta-MOs occ     :     1 ...    1 (  1 MO's/  1 electrons)
  Alpha-MOs virt   :     4 ...    8 (  5 MO's              )
  Beta-MOs virt    :     2 ...    8 (  7 MO's              )
Number of AO's                             ...      9
Number of electrons                        ...      6
Number of correlated electrons             ...      4

Algorithmic settings
--------------------
Integral transformation                    ... Separate K and J transformations
K(C) Formation                             ... AO-EXCHANGE STORED
Maximum number of iterations               ...        50
Convergence tolerance (max. residuum)      ... 2.500e-05
Level shift for amplitude update           ... 2.000e-01
Maximum number of DIIS vectors             ...         7
DIIS turned on at iteration                ...         0
Damping before turning on DIIS             ...     0.500
Damping after turning on DIIS              ...     0.000
Pair specific amplitude update             ... OFF
Natural orbital iterations                 ... OFF
Perturbative natural orbital generation    ... OFF
Printlevel                                 ... 4

Memory handling:
----------------
Maximum memory for working arrays          ...   4000 MB
Data storage in matrix containers          ... UNCOMPRESSED
Data type for integral storage             ... DOUBLE
In-Core Storage of quantities:
   Amplitudes+Sigma Vector      ... YES
   J+K operators                ... YES
   DIIS vectors                 ... YES
   3-external integrals         ... YES
   4-external integrals         ... YES


Initializing the integral package          ... done
Localizing the valence orbitals
Localizing the valence orbitals
------------------------------------------------------------------------------
                           ORCA ORBITAL LOCALIZATION
------------------------------------------------------------------------------

Input orbitals are from                  ... /home/ubuntu/Shiwei/qm9_reaction_eng/qm9_orca_work/qm9_orca_work_elem/c/c_mp2_631g.gbw
Output orbitals are to                   ... /home/ubuntu/Shiwei/qm9_reaction_eng/qm9_orca_work/qm9_orca_work_elem/c/c_mp2_631g.loc
Max. number of iterations                ... 128
Localizations seeded randomly            ... off
Convergence tolerance                    ... 1.000e-06
Threshold for strong local MOs           ... 9.500e-01
Threshold for bond MOs                   ... 8.500e-01
Operator                                 ... 0
Orbital range for localization           ... 1 to 3
Localization criterion                   ... FOSTER-BOYS (AUGMENTED HESSIAN)
Doing the dipole integrals     ... o.k.
Initial value of the localization sum :     0.000000
ITERATION   0 : L=    2.1959356603 DL=  2.20e+00 (AVERGE_DL)=    0.8555574519 
ITERATION   1 : L=    2.2302471550 DL=  3.43e-02 (AVERGE_DL)=    0.1069446815 
ITERATION   2 : L=    2.2307832721 DL=  5.36e-04 (AVERGE_DL)=    0.0133680852 
ITERATION   3 : L=    2.2307916490 DL=  8.38e-06 (AVERGE_DL)=    0.0016710106 
ITERATION   4 : L=    2.2307917798 DL=  1.31e-07 (AVERGE_DL)=    0.0002088763 
LOCALIZATION SUM CONVERGED

------------------------------------------------------
AUGMENTED HESSIAN OPTIMIZATION OF FOSTER-BOYS ORBITALS
------------------------------------------------------

Spin operator:           0
Orbital window:          1 to 3
Number of iterations:    128
Gradient tolerance:      1.000e-06
Number of pairs:         3
Davidson threshold:      2000
Diagonalization method:  LAPACK
Iter:    0   L: 2.2307917798   Grad. norm: 1.925517e-04
   *** Likely close to a maximum now. ***
       Augmented Hessian eigenvalues:  4.16e-09  1.04e-09 -8.92e+00 -8.92e+00
Iter:    1   L: 2.2307917819   Grad. norm: 4.407832e-09
LOCALIZATION HAS CONVERGED.

Eigenvalues of the Hessian:
  0 -4.831e-16
  1 -8.923e+00
  2 -8.923e+00


--------------------------------------------------------------------------------
                    LOCALIZED MOLECULAR ORBITAL COMPOSITIONS
--------------------------------------------------------------------------------

The Mulliken populations for each LMO on each atom are computed
The LMO`s will be ordered according to atom index and type
  (A) Strongly localized MO`s have populations of >=0.950 on one atom
  (B) Two center bond orbitals have populations of >=0.850 on two atoms
  (C) Other MO`s are considered to be `delocalized`

FOUND  -   3 strongly local MO`s
       -   0 two center bond MO`s
       -   0 significantly delocalized MO`s

Rather strongly localized orbitals:
MO   3:   0C  -   1.000000
MO   2:   0C  -   1.000000
MO   1:   0C  -   1.000000
Localized MO's were stored in: /home/ubuntu/Shiwei/qm9_reaction_eng/qm9_orca_work/qm9_orca_work_elem/c/c_mp2_631g.loc

------------------------------------------------------------------------------
                           ORCA ORBITAL LOCALIZATION
------------------------------------------------------------------------------

Input orbitals are from                  ... /home/ubuntu/Shiwei/qm9_reaction_eng/qm9_orca_work/qm9_orca_work_elem/c/c_mp2_631g.loc
Output orbitals are to                   ... /home/ubuntu/Shiwei/qm9_reaction_eng/qm9_orca_work/qm9_orca_work_elem/c/c_mp2_631g.loc
Max. number of iterations                ... 128
Localizations seeded randomly            ... off
Convergence tolerance                    ... 1.000e-06
Threshold for strong local MOs           ... 9.500e-01
Threshold for bond MOs                   ... 8.500e-01
Operator                                 ... 1
Orbital range for localization           ... 1 to 1
Localization criterion                   ... FOSTER-BOYS (AUGMENTED HESSIAN)
Doing the dipole integrals     ... o.k.

ORCA_LOC: ONLY ONE ORBITAL - SKIPPING LOCALIZATION


--------------------------------------------------------------------------------
                    LOCALIZED MOLECULAR ORBITAL COMPOSITIONS
--------------------------------------------------------------------------------

The Mulliken populations for each LMO on each atom are computed
The LMO`s will be ordered according to atom index and type
  (A) Strongly localized MO`s have populations of >=0.950 on one atom
  (B) Two center bond orbitals have populations of >=0.850 on two atoms
  (C) Other MO`s are considered to be `delocalized`

FOUND  -   1 strongly local MO`s
       -   0 two center bond MO`s
       -   0 significantly delocalized MO`s

Rather strongly localized orbitals:
MO   1:   0C  -   1.000000
Localized MO's were stored in: /home/ubuntu/Shiwei/qm9_reaction_eng/qm9_orca_work/qm9_orca_work_elem/c/c_mp2_631g.loc

Localizing the core orbitals
------------------------------------------------------------------------------
                           ORCA ORBITAL LOCALIZATION
------------------------------------------------------------------------------

Input orbitals are from                  ... /home/ubuntu/Shiwei/qm9_reaction_eng/qm9_orca_work/qm9_orca_work_elem/c/c_mp2_631g.loc
Output orbitals are to                   ... /home/ubuntu/Shiwei/qm9_reaction_eng/qm9_orca_work/qm9_orca_work_elem/c/c_mp2_631g.loc
Max. number of iterations                ... 128
Localizations seeded randomly            ... off
Convergence tolerance                    ... 1.000e-06
Threshold for strong local MOs           ... 9.500e-01
Threshold for bond MOs                   ... 8.500e-01
Operator                                 ... 0
Orbital range for localization           ... 0 to 0
Localization criterion                   ... FOSTER-BOYS (AUGMENTED HESSIAN)
Doing the dipole integrals     ... o.k.

ORCA_LOC: ONLY ONE ORBITAL - SKIPPING LOCALIZATION


--------------------------------------------------------------------------------
                    LOCALIZED MOLECULAR ORBITAL COMPOSITIONS
--------------------------------------------------------------------------------

The Mulliken populations for each LMO on each atom are computed
The LMO`s will be ordered according to atom index and type
  (A) Strongly localized MO`s have populations of >=0.950 on one atom
  (B) Two center bond orbitals have populations of >=0.850 on two atoms
  (C) Other MO`s are considered to be `delocalized`

FOUND  -   1 strongly local MO`s
       -   0 two center bond MO`s
       -   0 significantly delocalized MO`s

Rather strongly localized orbitals:
MO   0:   0C  -   1.000000
Localized MO's were stored in: /home/ubuntu/Shiwei/qm9_reaction_eng/qm9_orca_work/qm9_orca_work_elem/c/c_mp2_631g.loc

Warning: reference  - re-canonicalizations have been set to INT 1 VIRT 1
Warning: internal orbitals are localized - no re-canonicalization of internal orbitals
Fock densities were made 
Making Fock matrix and reference energy:

--------------------------
UNRESTRICTED FOCK OPERATOR
--------------------------

Recanonicalizing the virtual orbitals
Storing new orbitals
Time needed for Fock operator              ...            0.003 sec
Reference energy                           ...    -37.677837035

-------------------------
SHARK HALF TRANSFORMATION
-------------------------

Number of basis functions                ...      9
Number of operators                      ...      2
   Operator  0:    1-   3

   Operator  1:    1-   1

Integral generator used                  ... SHARK
Contraction scheme used                  ... SEGMENTED CONTRACTION
MaxCore in resort                        ...   8000 MB

Half transformed integrals for op=   0   ... /home/ubuntu/Shiwei/qm9_reaction_eng/qm9_orca_work/qm9_orca_work_elem/c/c_mp2_631g.SHARK_MNPQ0.tmp
Resorted half transformed integrals      ... /home/ubuntu/Shiwei/qm9_reaction_eng/qm9_orca_work/qm9_orca_work_elem/c/c_mp2_631g._PQMN_0.tmp
Half transformed integrals for op=   1   ... /home/ubuntu/Shiwei/qm9_reaction_eng/qm9_orca_work/qm9_orca_work_elem/c/c_mp2_631g.SHARK_MNPQ1.tmp
Resorted half transformed integrals      ... /home/ubuntu/Shiwei/qm9_reaction_eng/qm9_orca_work/qm9_orca_work_elem/c/c_mp2_631g._PQMN_1.tmp
Starting integral generation + half trafo... 
Half trafo (segmented) done. Total time =  0.0 sec. integrals=  0.0 sec trafo=  0.0 sec
Starting integral resorting              ... done (  0.0 sec)

SHARK half integral transformation done. Total time =  0.0 sec.

----------------------------------
J-TRAFO SECOND HALF TRANSFORMATION
----------------------------------

Generate (ij|kl)                        ... NO
Generate (ij|ka)                        ... YES
Generate (ij|ab)                        ... YES
Generate (ia|bc)                        ... NO
Generate (ab|cd)                        ... NO
Generate (pq|rs)                        ... NO

Number of operators                     ... 2
   Operator 0                           ...    1-   3 to    4-   8
   PQMN-Container name                  ... /home/ubuntu/Shiwei/qm9_reaction_eng/qm9_orca_work/qm9_orca_work_elem/c/c_mp2_631g._PQMN_0.tmp
   IJKA-Container name    op=0,0        ... /home/ubuntu/Shiwei/qm9_reaction_eng/qm9_orca_work/qm9_orca_work_elem/c/c_mp2_631g._IJKA_0.tmp
   IJAB-Container name    op=0,0        ... /home/ubuntu/Shiwei/qm9_reaction_eng/qm9_orca_work/qm9_orca_work_elem/c/c_mp2_631g._IJAB_0.tmp
   IJKA-Container name    op=0,1        ... /home/ubuntu/Shiwei/qm9_reaction_eng/qm9_orca_work/qm9_orca_work_elem/c/c_mp2_631g._IJKA_2.tmp
   IJAB-Container name    op=0,1        ... /home/ubuntu/Shiwei/qm9_reaction_eng/qm9_orca_work/qm9_orca_work_elem/c/c_mp2_631g._IJAB_2.tmp
   Operator 1                           ...    1-   1 to    2-   8
   PQMN-Container name                  ... /home/ubuntu/Shiwei/qm9_reaction_eng/qm9_orca_work/qm9_orca_work_elem/c/c_mp2_631g._PQMN_1.tmp
   IJKA-Container name    op=1,0        ... /home/ubuntu/Shiwei/qm9_reaction_eng/qm9_orca_work/qm9_orca_work_elem/c/c_mp2_631g._IJKA_3.tmp
   IJAB-Container name    op=1,0        ... /home/ubuntu/Shiwei/qm9_reaction_eng/qm9_orca_work/qm9_orca_work_elem/c/c_mp2_631g._IJAB_3.tmp
   IJKA-Container name    op=1,1        ... /home/ubuntu/Shiwei/qm9_reaction_eng/qm9_orca_work/qm9_orca_work_elem/c/c_mp2_631g._IJKA_1.tmp
   IJAB-Container name    op=1,1        ... /home/ubuntu/Shiwei/qm9_reaction_eng/qm9_orca_work/qm9_orca_work_elem/c/c_mp2_631g._IJAB_1.tmp

Starting integral transformations       ... done
Completed Coulomb integral formation in   0.0 sec


-------------------------
SHARK HALF TRANSFORMATION (Exchange order)
-------------------------

Number of basis functions                   ...      9
Number of operators                         ...      2
   Operator  0:    1-   3 (p-index in (p*|q*))
   Operator  0:    1-   3 (q-index in (p*|q*)
   Operator  1:    1-   1 (p-index in (p*|q*))
   Operator  1:    1-   1 (q-index in (p*|q*)
Integral generator used                     ... SHARK
Contraction scheme used                     ... SEGMENTED CONTRACTION
MaxCore in resort                           ...   8000 MB

Half transformed integrals for op=   0      ... /home/ubuntu/Shiwei/qm9_reaction_eng/qm9_orca_work/qm9_orca_work_elem/c/c_mp2_631g.SHARK_MNPQ0.tmp
Resorted half transformed integrals         ... /home/ubuntu/Shiwei/qm9_reaction_eng/qm9_orca_work/qm9_orca_work_elem/c/c_mp2_631g._PMQN_0.tmp
Half transformed integrals for op=   1      ... /home/ubuntu/Shiwei/qm9_reaction_eng/qm9_orca_work/qm9_orca_work_elem/c/c_mp2_631g.SHARK_MNPQ1.tmp
Resorted half transformed integrals         ... /home/ubuntu/Shiwei/qm9_reaction_eng/qm9_orca_work/qm9_orca_work_elem/c/c_mp2_631g._PMQN_1.tmp
Half transformed integrals for op=0/1       ... /home/ubuntu/Shiwei/qm9_reaction_eng/qm9_orca_work/qm9_orca_work_elem/c/c_mp2_631g.SHARK_MNPQ01.tmp
Resorted half transformed integrals         ... /home/ubuntu/Shiwei/qm9_reaction_eng/qm9_orca_work/qm9_orca_work_elem/c/c_mp2_631g._PMQN_2.tmp
Half transformed integrals for op=1/0       ... /home/ubuntu/Shiwei/qm9_reaction_eng/qm9_orca_work/qm9_orca_work_elem/c/c_mp2_631g.SHARK_MNPQ10.tmp
Resorted half transformed integrals         ... /home/ubuntu/Shiwei/qm9_reaction_eng/qm9_orca_work/qm9_orca_work_elem/c/c_mp2_631g._PMQN_3.tmp

Half trafo (segmented) done. Total time =  0.0 sec. integrals=  0.0 sec trafo=  0.0 sec

----------------------
SHARK INTEGRAL SORTING (Exchange)
----------------------

Input container                             ... /home/ubuntu/Shiwei/qm9_reaction_eng/qm9_orca_work/qm9_orca_work_elem/c/c_mp2_631g.SHARK_MNPQ0.tmp
Output container                            ... /home/ubuntu/Shiwei/qm9_reaction_eng/qm9_orca_work/qm9_orca_work_elem/c/c_mp2_631g._PMQN_0.tmp
Range of AO-indices                         ...    0 -    8
Range of bra indices i                      ...    1 -    3
Range of ket indices j                      ...    1 -    3
Symmetric i,j range                         ... YES
Number of (i,j) pairs generated             ...    6
Max Core memory in MB                       ...   8000

Available core memory in MB                 ...   7984.39
MB needed for one item                      ...      0.00
Number of items                             ...         6
Number of batches                           ...         1
Items treated per batch                     ...         6
Batch   0                                   ...      0-     5 (     6)
   => Closing output file and leaving

----------------------
SHARK INTEGRAL SORTING (Exchange)
----------------------

Input container                             ... /home/ubuntu/Shiwei/qm9_reaction_eng/qm9_orca_work/qm9_orca_work_elem/c/c_mp2_631g.SHARK_MNPQ1.tmp
Output container                            ... /home/ubuntu/Shiwei/qm9_reaction_eng/qm9_orca_work/qm9_orca_work_elem/c/c_mp2_631g._PMQN_1.tmp
Range of AO-indices                         ...    0 -    8
Range of bra indices i                      ...    1 -    1
Range of ket indices j                      ...    1 -    1
Symmetric i,j range                         ... YES
Number of (i,j) pairs generated             ...    1
Max Core memory in MB                       ...   8000

Available core memory in MB                 ...   7984.40
MB needed for one item                      ...      0.00
Number of items                             ...         1
Number of batches                           ...         1
Items treated per batch                     ...         1
Batch   0                                   ...      0-     0 (     1)
   => Closing output file and leaving

----------------------
SHARK INTEGRAL SORTING (Exchange)
----------------------

Input container                             ... /home/ubuntu/Shiwei/qm9_reaction_eng/qm9_orca_work/qm9_orca_work_elem/c/c_mp2_631g.SHARK_MNPQ01.tmp
Output container                            ... /home/ubuntu/Shiwei/qm9_reaction_eng/qm9_orca_work/qm9_orca_work_elem/c/c_mp2_631g._PMQN_2.tmp
Range of AO-indices                         ...    0 -    8
Range of bra indices i                      ...    1 -    3
Range of ket indices j                      ...    1 -    1
Symmetric i,j range                         ... NO
Number of (i,j) pairs generated             ...    3
Max Core memory in MB                       ...   8000

Available core memory in MB                 ...   7984.40
MB needed for one item                      ...      0.00
Number of items                             ...         3
Number of batches                           ...         1
Items treated per batch                     ...         3
Batch   0                                   ...      0-     2 (     3)
   => Closing output file and leaving

----------------------
SHARK INTEGRAL SORTING (Exchange)
----------------------

Input container                             ... /home/ubuntu/Shiwei/qm9_reaction_eng/qm9_orca_work/qm9_orca_work_elem/c/c_mp2_631g.SHARK_MNPQ10.tmp
Output container                            ... /home/ubuntu/Shiwei/qm9_reaction_eng/qm9_orca_work/qm9_orca_work_elem/c/c_mp2_631g._PMQN_3.tmp
Range of AO-indices                         ...    0 -    8
Range of bra indices i                      ...    1 -    1
Range of ket indices j                      ...    1 -    3
Symmetric i,j range                         ... NO
Number of (i,j) pairs generated             ...    3
Max Core memory in MB                       ...   8000

Available core memory in MB                 ...   7984.40
MB needed for one item                      ...      0.00
Number of items                             ...         3
Number of batches                           ...         1
Items treated per batch                     ...         3
Batch   0                                   ...      0-     2 (     3)
   => Closing output file and leaving
done (  0.0 sec)

SHARK half integral transformation done. Total time =  0.0 sec.

----------------------------------
K-TRAFO SECOND HALF TRANSFORMATION
----------------------------------

Generate (ik|jl)                        ... YES
Generate (ik|ja)                        ... YES
Generate (ia|jb)                        ... YES
Generate (ib|ac)                        ... NO
Generate (ac|bd)                        ... NO
Generate (pr|qs)                        ... NO

Number of operators                     ... 2
   Operator 0                           ...    1-   3 to    4-   8
   Operator 1                           ...    1-   1 to    2-   8

Starting integral transformations       ... done
Completed Exchange integral formation in   0.0 sec


-----------------------
SPIN UNRESTRICTED GUESS
-----------------------

Spin-components of the MP2 energy:
EMP2(aa)=     -0.004171387
EMP2(bb)=      0.000000000
EMP2(ab)=     -0.020757667

Initial guess performed in     0.000 sec
E(0)                                       ...    -37.677837035
E(MP2)                                     ...     -0.024929054
Initial E(tot)                             ...    -37.702766089
<T|T>                                      ...      0.012978510
Number of pairs included                   ... 6

---------------------------
UHF QUADRATIC CI ITERATIONS
---------------------------

Number of amplitudes to be optimized       ...          151

Iter       E(tot)           E(Corr)          Delta-E          Residual     Time      <S|S>**1/2
  0 Entering Calc_Sigma_UHF
Calling CC/MakeTauAmplitudes
Calling QCI/DressFock
Done with QCI/DressFock (    0.000 sec)
Calling QCI/DressIKJL
Done with QCI/DressIKJL (    0.000 sec)
Calling QCI/DressJK
Done with QCI/DressJK (    0.000 sec)
Calling Calc_0D_1
Done with Calc_0D_1  (    0.000 sec)
Largest sigma element after [0D_1] :      0.068699024
Calling Calc_DD_0a
Done with Calc_DD_0a (    0.000 sec) 
Calling Calc_DD_0b
Done with Calc_DD_0b (    0.000 sec)
Largest sigma element after [DD_0] :      0.032413186
Calling Calc_DD_2a
Done with Calc_DD_2a (    0.000 sec)
Calling Calc_DD_2b
Done with Calc_DD_2b (    0.000 sec)
Largest sigma element after [DD_2] :      0.050282701
Calling Calc_DD_4
COD Check DIM 9 NMOa 8 
COD Check DIM 9 NMOa 8 
Batching information for K(C)-AO:
   Number of pairs=                6
   Mem per (i,j)  =            0.002 MB
   (i,j) per batch=                6
   N(Batches)     =                1
   T(CutInt)      =  1.000000000e-11
COD check DIM 9
COD check DIM 9
COD check DIM 9
COD check DIM 9
COD check DIM 9
COD check DIM 9
K(C)-AOX-2 (UHF Version)  :
  Mem per (p,q)   =            0.001 MB
  (p,q) per batch =               45 
  N(batches)      =                1 
  N(pq-pairs)     =               45 
Mapped the (p,q) pairs
Formed amplitude T+/- combinations
P-batch no 1
  pairs =    0 ...   44
  (p,q) in batch =   45
  integral combination K+/- formed
  matrix multiplications done
  sigma-vector contributions done
All batches done
Done with Calc_DD_4
Done (3)/4 external (    0.001 sec)
Largest sigma element after [DD_4] :      0.023241206
Calling Calc_S0_1
Done with Calc_S0_1 (    0.000 sec)
Largest sigma element after [S0_1] :      0.023241206
Calling Calc_SS_1
Done with Calc_SS_1 (    0.000 sec)
Largest sigma element after [SS_1] :      0.023241206
Calling Calc_DS_1
Done with Calc_DS_1 (    0.000 sec)
Largest sigma element after [DS_1] :      0.023241206
Calling Calc_SD_1
Done with Calc_SD_1 (    0.000 sec)
Largest sigma element after [SD_1] :      0.023241206
Largest sigma element after [SD_3] :      0.023241206
Calling Calc_PairEnergies
E_DD  -0.006919222304
E_SD  -0.016619369345
E_SS  -0.001390462376
E_SingS  -0.000000000000
E_SingD  -0.000000000000
Done with Calc_PairEnergies (    0.000 sec)
Largest sigma element after [PAIR] :      0.023241206
EC=     -0.024929054
Pair energies:
   0 :     -0.001390462
   1 :     -0.001390462
   2 :     -0.001390462
   3 :     -0.006919222
   4 :     -0.006919222
   5 :     -0.006919222
   6 :     -0.000000000
   7 :     -0.000000000
   8 :     -0.000000000
   9 :     -0.000000000
Calling Calc_Shift
Done with Calc_Shift (    0.000 sec)
Largest sigma element after [SHFT] :      0.023241206
Leaving Calc_Sigma
Largest sigma element after [COLL] :      0.023241206
   => Past ModifyStateVector
   => Leaving sigma vector
   -37.702766089     -0.024929054     -0.000000000      0.023241206    0.00      0.000000225
                           *** Turning on DIIS ***
  1 Entering Calc_Sigma_UHF
Calling CC/MakeTauAmplitudes
Calling QCI/DressFock
Done with QCI/DressFock (    0.000 sec)
Calling QCI/DressIKJL
Done with QCI/DressIKJL (    0.000 sec)
Calling QCI/DressJK
Done with QCI/DressJK (    0.000 sec)
Calling Calc_0D_1
Done with Calc_0D_1  (    0.000 sec)
Largest sigma element after [0D_1] :      0.068699024
Calling Calc_DD_0a
Done with Calc_DD_0a (    0.000 sec) 
Calling Calc_DD_0b
Done with Calc_DD_0b (    0.000 sec)
Largest sigma element after [DD_0] :      0.063951416
Calling Calc_DD_2a
Done with Calc_DD_2a (    0.000 sec)
Calling Calc_DD_2b
Done with Calc_DD_2b (    0.000 sec)
Largest sigma element after [DD_2] :      0.047612809
Calling Calc_DD_4
COD Check DIM 9 NMOa 8 
COD Check DIM 9 NMOa 8 
Batching information for K(C)-AO:
   Number of pairs=                6
   Mem per (i,j)  =            0.002 MB
   (i,j) per batch=                6
   N(Batches)     =                1
   T(CutInt)      =  1.000000000e-11
COD check DIM 9
COD check DIM 9
COD check DIM 9
COD check DIM 9
COD check DIM 9
COD check DIM 9
K(C)-AOX-2 (UHF Version)  :
  Mem per (p,q)   =            0.001 MB
  (p,q) per batch =               45 
  N(batches)      =                1 
  N(pq-pairs)     =               45 
Mapped the (p,q) pairs
Formed amplitude T+/- combinations
P-batch no 1
  pairs =    0 ...   44
  (p,q) in batch =   45
  integral combination K+/- formed
  matrix multiplications done
  sigma-vector contributions done
All batches done
Done with Calc_DD_4
Done (3)/4 external (    0.000 sec)
Largest sigma element after [DD_4] :      0.016022012
Calling Calc_S0_1
Done with Calc_S0_1 (    0.000 sec)
Largest sigma element after [S0_1] :      0.016021673
Calling Calc_SS_1
Done with Calc_SS_1 (    0.000 sec)
Largest sigma element after [SS_1] :      0.016398654
Calling Calc_DS_1
Done with Calc_DS_1 (    0.000 sec)
Largest sigma element after [DS_1] :      0.011490244
Calling Calc_SD_1
Done with Calc_SD_1 (    0.000 sec)
Largest sigma element after [SD_1] :      0.011490244
Largest sigma element after [SD_3] :      0.011490244
Calling Calc_PairEnergies
E_DD  -0.008901333182
E_SD  -0.021241463596
E_SS  -0.001719398626
E_SingS   0.000000000673
E_SingD   0.000000000161
Done with Calc_PairEnergies (    0.000 sec)
Largest sigma element after [PAIR] :      0.011490244
EC=     -0.031862195
Pair energies:
   0 :     -0.001719399
   1 :     -0.001719399
   2 :     -0.001719399
   3 :     -0.008901333
   4 :     -0.008901333
   5 :     -0.008901333
   6 :      0.000000000
   7 :      0.000000000
   8 :      0.000000000
   9 :      0.000000000
Calling Calc_Shift
Done with Calc_Shift (    0.000 sec)
Largest sigma element after [SHFT] :      0.011490244
Leaving Calc_Sigma
Largest sigma element after [COLL] :      0.011490244
   => Past ModifyStateVector
   => Leaving sigma vector
   -37.709699229     -0.031862195     -0.006933141      0.011490244    0.00      0.002700006
The DIIS matrix
                  0          1          2    
      0       0.005232   0.002205   1.000000
      1       0.002205   0.000981   1.000000
      2       1.000000   1.000000   0.000000
                  0          1          2    
      0       0.000000   0.000000   0.000000
      1       0.000000   0.000000   0.000000
      2       1.000000   0.000000   0.000000
The DIIS solution:
   -0.678987    1.678987
  2 Entering Calc_Sigma_UHF
Calling CC/MakeTauAmplitudes
Calling QCI/DressFock
Done with QCI/DressFock (    0.000 sec)
Calling QCI/DressIKJL
Done with QCI/DressIKJL (    0.000 sec)
Calling QCI/DressJK
Done with QCI/DressJK (    0.000 sec)
Calling Calc_0D_1
Done with Calc_0D_1  (    0.000 sec)
Largest sigma element after [0D_1] :      0.068699024
Calling Calc_DD_0a
Done with Calc_DD_0a (    0.000 sec) 
Calling Calc_DD_0b
Done with Calc_DD_0b (    0.000 sec)
Largest sigma element after [DD_0] :      0.090213173
Calling Calc_DD_2a
Done with Calc_DD_2a (    0.000 sec)
Calling Calc_DD_2b
Done with Calc_DD_2b (    0.000 sec)
Largest sigma element after [DD_2] :      0.045128658
Calling Calc_DD_4
COD Check DIM 9 NMOa 8 
COD Check DIM 9 NMOa 8 
Batching information for K(C)-AO:
   Number of pairs=                6
   Mem per (i,j)  =            0.002 MB
   (i,j) per batch=                6
   N(Batches)     =                1
   T(CutInt)      =  1.000000000e-11
COD check DIM 9
COD check DIM 9
COD check DIM 9
COD check DIM 9
COD check DIM 9
COD check DIM 9
K(C)-AOX-2 (UHF Version)  :
  Mem per (p,q)   =            0.001 MB
  (p,q) per batch =               45 
  N(batches)      =                1 
  N(pq-pairs)     =               45 
Mapped the (p,q) pairs
Formed amplitude T+/- combinations
P-batch no 1
  pairs =    0 ...   44
  (p,q) in batch =   45
  integral combination K+/- formed
  matrix multiplications done
  sigma-vector contributions done
All batches done
Done with Calc_DD_4
Done (3)/4 external (    0.000 sec)
Largest sigma element after [DD_4] :      0.015358612
Calling Calc_S0_1
Done with Calc_S0_1 (    0.000 sec)
Largest sigma element after [S0_1] :      0.015358273
Calling Calc_SS_1
Done with Calc_SS_1 (    0.000 sec)
Largest sigma element after [SS_1] :      0.016550473
Calling Calc_DS_1
Done with Calc_DS_1 (    0.000 sec)
Largest sigma element after [DS_1] :      0.001666984
Calling Calc_SD_1
Done with Calc_SD_1 (    0.000 sec)
Largest sigma element after [SD_1] :      0.001666984
Largest sigma element after [SD_3] :      0.001666984
Calling Calc_PairEnergies
E_DD  -0.010291820950
E_SD  -0.024405616087
E_SS  -0.001910987106
E_SingS   0.000000001831
E_SingD   0.000000000353
Done with Calc_PairEnergies (    0.000 sec)
Largest sigma element after [PAIR] :      0.001666984
EC=     -0.036608422
Pair energies:
   0 :     -0.001910987
   1 :     -0.001910987
   2 :     -0.001910987
   3 :     -0.010291821
   4 :     -0.010291821
   5 :     -0.010291821
   6 :      0.000000000
   7 :      0.000000000
   8 :      0.000000000
   9 :      0.000000001
Calling Calc_Shift
Done with Calc_Shift (    0.000 sec)
Largest sigma element after [SHFT] :      0.001666984
Leaving Calc_Sigma
Largest sigma element after [COLL] :      0.001666984
   => Past ModifyStateVector
   => Leaving sigma vector
   -37.714445457     -0.036608422     -0.004746227      0.001666984    0.00      0.005910052
The DIIS matrix
                  0          1          2          3    
      0       0.005232   0.002205   0.000134   1.000000
      1       0.002205   0.000981   0.000089   1.000000
      2       0.000134   0.000089   0.000025   1.000000
      3       1.000000   1.000000   1.000000   0.000000
                  0          1          2          3    
      0       0.000000   0.000000   0.000000   0.000000
      1       0.000000   0.000000   0.000000   0.000000
      2       0.000000   0.000000   0.000000   0.000000
      3       1.000000   0.000000   0.000000   0.000000
The DIIS solution:
    0.379557   -0.997508    1.617950
  3 Entering Calc_Sigma_UHF
Calling CC/MakeTauAmplitudes
Calling QCI/DressFock
Done with QCI/DressFock (    0.000 sec)
Calling QCI/DressIKJL
Done with QCI/DressIKJL (    0.000 sec)
Calling QCI/DressJK
Done with QCI/DressJK (    0.000 sec)
Calling Calc_0D_1
Done with Calc_0D_1  (    0.000 sec)
Largest sigma element after [0D_1] :      0.068699024
Calling Calc_DD_0a
Done with Calc_DD_0a (    0.000 sec) 
Calling Calc_DD_0b
Done with Calc_DD_0b (    0.000 sec)
Largest sigma element after [DD_0] :      0.094490980
Calling Calc_DD_2a
Done with Calc_DD_2a (    0.000 sec)
Calling Calc_DD_2b
Done with Calc_DD_2b (    0.000 sec)
Largest sigma element after [DD_2] :      0.044651597
Calling Calc_DD_4
COD Check DIM 9 NMOa 8 
COD Check DIM 9 NMOa 8 
Batching information for K(C)-AO:
   Number of pairs=                6
   Mem per (i,j)  =            0.002 MB
   (i,j) per batch=                6
   N(Batches)     =                1
   T(CutInt)      =  1.000000000e-11
COD check DIM 9
COD check DIM 9
COD check DIM 9
COD check DIM 9
COD check DIM 9
COD check DIM 9
K(C)-AOX-2 (UHF Version)  :
  Mem per (p,q)   =            0.001 MB
  (p,q) per batch =               45 
  N(batches)      =                1 
  N(pq-pairs)     =               45 
Mapped the (p,q) pairs
Formed amplitude T+/- combinations
P-batch no 1
  pairs =    0 ...   44
  (p,q) in batch =   45
  integral combination K+/- formed
  matrix multiplications done
  sigma-vector contributions done
All batches done
Done with Calc_DD_4
Done (3)/4 external (    0.000 sec)
Largest sigma element after [DD_4] :      0.015440752
Calling Calc_S0_1
Done with Calc_S0_1 (    0.000 sec)
Largest sigma element after [S0_1] :      0.015440850
Calling Calc_SS_1
Done with Calc_SS_1 (    0.000 sec)
Largest sigma element after [SS_1] :      0.015198781
Calling Calc_DS_1
Done with Calc_DS_1 (    0.000 sec)
Largest sigma element after [DS_1] :      0.000794573
Calling Calc_SD_1
Done with Calc_SD_1 (    0.000 sec)
Largest sigma element after [SD_1] :      0.000267915
Largest sigma element after [SD_3] :      0.000267915
Calling Calc_PairEnergies
E_DD  -0.010402765332
E_SD  -0.024621867132
E_SS  -0.001908168247
E_SingS   0.000000002472
E_SingD   0.000000000434
Done with Calc_PairEnergies (    0.000 sec)
Largest sigma element after [PAIR] :      0.000267915
EC=     -0.036932798
Pair energies:
   0 :     -0.001908168
   1 :     -0.001908168
   2 :     -0.001908168
   3 :     -0.010402765
   4 :     -0.010402765
   5 :     -0.010402765
   6 :      0.000000000
   7 :      0.000000000
   8 :      0.000000000
   9 :      0.000000002
Calling Calc_Shift
Done with Calc_Shift (    0.000 sec)
Largest sigma element after [SHFT] :      0.000267915
Leaving Calc_Sigma
Largest sigma element after [COLL] :      0.000267915
   => Past ModifyStateVector
   => Leaving sigma vector
   -37.714769833     -0.036932798     -0.000324376      0.000267915    0.00      0.006911481
The DIIS matrix
                  0          1          2          3          4    
      0       0.005232   0.002205   0.000134   0.000013   1.000000
      1       0.002205   0.000981   0.000089   0.000008   1.000000
      2       0.000134   0.000089   0.000025   0.000002   1.000000
      3       0.000013   0.000008   0.000002   0.000001   1.000000
      4       1.000000   1.000000   1.000000   1.000000   0.000000
                  0          1          2          3          4    
      0       0.000000   0.000000   0.000000   0.000000   0.000000
      1       0.000000   0.000000   0.000000   0.000000   0.000000
      2       0.000000   0.000000   0.000000   0.000000   0.000000
      3       0.000000   0.000000   0.000000   0.000000   0.000000
      4       1.000000   0.000000   0.000000   0.000000   0.000000
The DIIS solution:
   -0.167662    0.436002   -0.777373    1.509033
  4 Entering Calc_Sigma_UHF
Calling CC/MakeTauAmplitudes
Calling QCI/DressFock
Done with QCI/DressFock (    0.000 sec)
Calling QCI/DressIKJL
Done with QCI/DressIKJL (    0.000 sec)
Calling QCI/DressJK
Done with QCI/DressJK (    0.000 sec)
Calling Calc_0D_1
Done with Calc_0D_1  (    0.000 sec)
Largest sigma element after [0D_1] :      0.068699024
Calling Calc_DD_0a
Done with Calc_DD_0a (    0.000 sec) 
Calling Calc_DD_0b
Done with Calc_DD_0b (    0.000 sec)
Largest sigma element after [DD_0] :      0.094838095
Calling Calc_DD_2a
Done with Calc_DD_2a (    0.000 sec)
Calling Calc_DD_2b
[...]
EC=     -0.036981203
Pair energies:
   0 :     -0.001910518
   1 :     -0.001910518
   2 :     -0.001910518
   3 :     -0.010416550
   4 :     -0.010416550
   5 :     -0.010416550
   6 :      0.000000000
   7 :      0.000000000
   8 :      0.000000000
   9 :      0.000000002
Calling Calc_Shift
Done with Calc_Shift (    0.000 sec)
Largest sigma element after [SHFT] :      0.000065247
Leaving Calc_Sigma
Largest sigma element after [COLL] :      0.000065247
   => Past ModifyStateVector
   => Leaving sigma vector
   -37.714818238     -0.036981203     -0.000048405      0.000065247    0.00      0.006992843
The DIIS matrix
                  0          1          2          3          4          5    
      0       0.005232   0.002205   0.000134   0.000013  -0.000004   1.000000
      1       0.002205   0.000981   0.000089   0.000008  -0.000002   1.000000
      2       0.000134   0.000089   0.000025   0.000002  -0.000000   1.000000
      3       0.000013   0.000008   0.000002   0.000001   0.000000   1.000000
      4      -0.000004  -0.000002  -0.000000   0.000000   0.000000   1.000000
      5       1.000000   1.000000   1.000000   1.000000   1.000000   0.000000
                  0          1          2          3          4          5    
      0       0.000000   0.000000   0.000000   0.000000   0.000000   0.000000
      1       0.000000   0.000000   0.000000   0.000000   0.000000   0.000000
      2       0.000000   0.000000   0.000000   0.000000   0.000000   0.000000
      3       0.000000   0.000000   0.000000   0.000000   0.000000   0.000000
      4       0.000000   0.000000   0.000000   0.000000   0.000000   0.000000
      5       1.000000   0.000000   0.000000   0.000000   0.000000   0.000000
The DIIS solution:
    0.143408   -0.368920    0.669526   -1.410557    1.966543
  5 Entering Calc_Sigma_UHF
Calling CC/MakeTauAmplitudes
Calling QCI/DressFock
Done with QCI/DressFock (    0.000 sec)
Calling QCI/DressIKJL
Done with QCI/DressIKJL (    0.000 sec)
Calling QCI/DressJK
Done with QCI/DressJK (    0.000 sec)
Calling Calc_0D_1
Done with Calc_0D_1  (    0.000 sec)
Largest sigma element after [0D_1] :      0.068699024
Calling Calc_DD_0a
Done with Calc_DD_0a (    0.000 sec) 
Calling Calc_DD_0b
Done with Calc_DD_0b (    0.000 sec)
Largest sigma element after [DD_0] :      0.094636799
Calling Calc_DD_2a
Done with Calc_DD_2a (    0.000 sec)
Calling Calc_DD_2b
Done with Calc_DD_2b (    0.000 sec)
Largest sigma element after [DD_2] :      0.044637994
Calling Calc_DD_4
COD Check DIM 9 NMOa 8 
COD Check DIM 9 NMOa 8 
Batching information for K(C)-AO:
   Number of pairs=                6
   Mem per (i,j)  =            0.002 MB
   (i,j) per batch=                6
   N(Batches)     =                1
   T(CutInt)      =  1.000000000e-11
COD check DIM 9
COD check DIM 9
COD check DIM 9
COD check DIM 9
COD check DIM 9
COD check DIM 9
K(C)-AOX-2 (UHF Version)  :
  Mem per (p,q)   =            0.001 MB
  (p,q) per batch =               45 
  N(batches)      =                1 
  N(pq-pairs)     =               45 
Mapped the (p,q) pairs
Formed amplitude T+/- combinations
P-batch no 1
  pairs =    0 ...   44
  (p,q) in batch =   45
  integral combination K+/- formed
  matrix multiplications done
  sigma-vector contributions done
All batches done
Done with Calc_DD_4
Done (3)/4 external (    0.000 sec)
Largest sigma element after [DD_4] :      0.015403686
Calling Calc_S0_1
Done with Calc_S0_1 (    0.000 sec)
Largest sigma element after [S0_1] :      0.015403785
Calling Calc_SS_1
Done with Calc_SS_1 (    0.000 sec)
Largest sigma element after [SS_1] :      0.014916586
Calling Calc_DS_1
Done with Calc_DS_1 (    0.000 sec)
Largest sigma element after [DS_1] :      0.000754834
Calling Calc_SD_1
Done with Calc_SD_1 (    0.000 sec)
Largest sigma element after [SD_1] :      0.000017425
Largest sigma element after [SD_3] :      0.000017425
Calling Calc_PairEnergies
E_DD  -0.010409751834
E_SD  -0.024639619543
E_SS  -0.001910057952
E_SingS   0.000000002609
E_SingD   0.000000000452
Done with Calc_PairEnergies (    0.000 sec)
Largest sigma element after [PAIR] :      0.000017425
EC=     -0.036959426
Pair energies:
   0 :     -0.001910058
   1 :     -0.001910058
   2 :     -0.001910058
   3 :     -0.010409752
   4 :     -0.010409752
   5 :     -0.010409752
   6 :      0.000000000
   7 :      0.000000000
   8 :      0.000000000
   9 :      0.000000002
Calling Calc_Shift
Done with Calc_Shift (    0.000 sec)
Largest sigma element after [SHFT] :      0.000017425
Leaving Calc_Sigma
Largest sigma element after [COLL] :      0.000017425
   => Past ModifyStateVector
   => Leaving sigma vector
   -37.714796461     -0.036959426      0.000021776      0.000017425    0.00      0.006956542
               --- The Quadratic CI iterations have converged ---

-------------------
QUADRATIC CI ENERGY
-------------------

E(0)                                       ...    -37.677837035
E(CORR)(strong-pairs)                      ...     -0.036959426
E(CORR)(weak-pairs)                        ...      0.000000000
E(CORR)(total)                             ...     -0.036959426
E(TOT)                                     ...    -37.714796461
Singles norm <S|S>**1/2                    ...      0.006956542 ( 0.005700052, 0.001256490)  
T1 diagnostic                              ...      0.003478271                              

------------------
LARGEST AMPLITUDES
------------------
   1a->  4a   1b->  2b       0.076823
   2a->  4a   1b->  2b       0.076823
   3a->  4a   1b->  2b       0.076823
   2a->  6a   1b->  6b       0.033882
   3a->  5a   1b->  6b       0.030329
   1a->  5a   1b->  6b       0.028356
   3a->  6a   2a->  5a       0.025056
   3a->  5a   2a->  6a       0.025056
   3a->  6a   1a->  5a       0.025056
   3a->  5a   1a->  6a       0.025056
   2a->  5a   1a->  6a       0.025056
   2a->  6a   1a->  5a       0.025056
   1a->  4a   1b->  5b       0.024306
   3a->  4a   1b->  5b       0.024306
   2a->  4a   1b->  5b       0.024306
   1a->  8a   1b->  2b       0.022548



------------------------------
PAIR CORRELATION ENERGIES (Eh)
------------------------------


                      -----------------------
                      |  Alpha-Alpha Pairs  |
-------------------------------------------------------------------
    i     j         EP(Guess)         EP(Final)       Ratio        
-------------------------------------------------------------------
    3     2  :     -0.001390462      -0.001910058     0.73
    2     1  :     -0.001390462      -0.001910058     0.73
    3     1  :     -0.001390462      -0.001910058     0.73

                      -----------------------
                      |   Alpha-Beta Pairs  |
-------------------------------------------------------------------
    i     j         EP(Guess)         EP(Final)       Ratio        
-------------------------------------------------------------------
    1     1  :     -0.006919222      -0.010409752     0.66
    2     1  :     -0.006919222      -0.010409752     0.66
    3     1  :     -0.006919222      -0.010409752     0.66

Sum of all alpha-alpha pair energies     ...  -0.005730173852 Eh
Sum of all beta-beta pair energies       ...   0.000000000000 Eh
Sum of all alpha-beta pair energies      ...  -0.031229255476 Eh
                                             ----------------
                                              -0.036959429328 Eh


        !!!!!!!!!!!!!!!!!!!!!!!!!!!!!!!!!!!!!!!!!!!!!!!!!!!!!!!!!!!!!!!!!!!!!!!!!! 
        !  Warning: Densities are linearized densities                           !
        !!!!!!!!!!!!!!!!!!!!!!!!!!!!!!!!!!!!!!!!!!!!!!!!!!!!!!!!!!!!!!!!!!!!!!!!!! 

NORM  =      1.031538969 sqrt=     1.015647069
W(HF) =      0.969425325
------------------------------------------------------------------------------
                           ORCA POPULATION ANALYSIS
------------------------------------------------------------------------------
Input electron density              ... /home/ubuntu/Shiwei/qm9_reaction_eng/qm9_orca_work/qm9_orca_work_elem/c/c_mp2_631g.mdcip
Input spin density                  ... /home/ubuntu/Shiwei/qm9_reaction_eng/qm9_orca_work/qm9_orca_work_elem/c/c_mp2_631g.mdcir
BaseName (.gbw .S,...)              ... /home/ubuntu/Shiwei/qm9_reaction_eng/qm9_orca_work/qm9_orca_work_elem/c/c_mp2_631g

                    ********************************
                    * MULLIKEN POPULATION ANALYSIS *
                    ********************************

------------------------------------------
MULLIKEN ATOMIC CHARGES AND SPIN DENSITIES
------------------------------------------
   0 C :   -0.000000    2.000000
Sum of atomic charges       :   -0.0000000
Sum of atomic spin densities:    2.0000000

---------------------------------------------------
MULLIKEN REDUCED ORBITAL CHARGES AND SPIN DENSITIES
---------------------------------------------------
CHARGE
  0 C s       :     3.954802  s :     3.954802
      pz      :     0.522431  p :     2.045198
      px      :     1.001334
      py      :     0.521432

SPIN
  0 C s       :     0.002766  s :     0.002766
      pz      :     0.499829  p :     1.997234
      px      :     0.998617
      py      :     0.498788


                     *******************************
                     * LOEWDIN POPULATION ANALYSIS *
                     *******************************

-----------------------------------------
LOEWDIN ATOMIC CHARGES AND SPIN DENSITIES
-----------------------------------------
   0 C :    0.000000    2.000000

--------------------------------------------------
LOEWDIN REDUCED ORBITAL CHARGES AND SPIN DENSITIES
--------------------------------------------------
CHARGE
  0 C s       :     3.954802  s :     3.954802
      pz      :     0.522431  p :     2.045198
      px      :     1.001334
      py      :     0.521432

SPIN
  0 C s       :     0.002766  s :     0.002766
      pz      :     0.499829  p :     1.997234
      px      :     0.998617
      py      :     0.498788


                      *****************************
                      * MAYER POPULATION ANALYSIS *
                      *****************************

  NA   - Mulliken gross atomic population
  ZA   - Total nuclear charge
  QA   - Mulliken gross atomic charge
  VA   - Mayer's total valence
  BVA  - Mayer's bonded valence
  FA   - Mayer's free valence

  ATOM       NA         ZA         QA         VA         BVA        FA
  0 C      6.0000     6.0000    -0.0000     2.2268     0.0000     2.2268

  => No bond orders to print



--------------------------------------------------------------------------------
                                    TIMINGS
--------------------------------------------------------------------------------


Total execution time                   ...        0.142 sec

Localization of occupied MO's          ...        0.033 sec ( 23.0%)
Fock Matrix Formation                  ...        0.003 sec (  1.8%)
Initial Guess                          ...        0.000 sec (  0.3%)
DIIS Solver                            ...        0.001 sec (  0.4%)
State Vector Update                    ...        0.000 sec (  0.0%)
Sigma-vector construction              ...        0.003 sec (  2.4%)
  <D|H|D>(4-ext)                       ...        0.001 sec ( 36.5% of sigma)


Maximum memory used throughout the entire MDCI-calculation: 15.7 MB

-------------------------   --------------------
FINAL SINGLE POINT ENERGY       -37.714796461069
-------------------------   --------------------


------------------------------------------------------------------------------
                              ORCA PROPERTY CALCULATIONS
------------------------------------------------------------------------------

GBWName                                 ... /home/ubuntu/Shiwei/qm9_reaction_eng/qm9_orca_work/qm9_orca_work_elem/c/c_mp2_631g.gbw
Number of atoms                         ...      1
Number of basis functions               ...      9
Max core memory                         ...   8000 MB

Electric properties:
Dipole moment                           ... YES
Quadrupole moment                       ...  NO
Static polarizability (Dipole/Dipole)   ...  NO
Static polarizability (Dipole/Quad.)    ...  NO
Static polarizability (Quad./Quad.)     ...  NO
Static polarizability (Velocity)        ...  NO

Atomic electric properties:
Dipole moment                           ...  NO
Quadrupole moment                       ...  NO
Static polarizability                   ...  NO

Choice of electric origin               ... Center of mass
Position of electric origin             ...     0.000000     0.000000     0.000000

General magnetic properties:
Magnetizability                         ...  NO

EPR properties:
g-Tensor (aka g-matrix)                 ...  NO
Zero-Field splitting spin-orbit         ...  NO
Zero-field splitting spin-spin          ...  NO
Hyperfine couplings                     ...  NO (   0 nuclei)
Quadrupole couplings                    ...  NO (   0 nuclei)
Contact density                         ...  NO (   0 nuclei)

NMR properties:
Chemical shifts                         ...  NO (   0 nuclei)
Spin-rotation constants                 ...  NO (   0 nuclei)
Spin-spin couplings                     ...  NO (   0 nuclei,    0 pairs)

Choice of magnetic origin               ... GIAO
Position of magnetic origin             ...     0.000000     0.000000     0.000000

Properties with geometric perturbations:
SCF Hessian                             ...  NO
IR spectrum                             ...  NO
VCD spectrum                            ...  NO
X-ray spectroscopy properties:
SCF XES/XAS/RIXS spectra                ...  NO


-------------
DIPOLE MOMENT
-------------

Method             : SCF
Type of density    : Electron Density
Multiplicity       :   3
Irrep              :   0
Energy             :   -37.6778370348006106 Eh
Relativity type    : 
Basis              : AO
                                X                 Y                 Z
Electronic contribution:      0.000000000       0.000000000       0.000000000
Nuclear contribution   :      0.000000000       0.000000000       0.000000000
                        -----------------------------------------
Total Dipole Moment    :      0.000000000       0.000000000       0.000000000
                        -----------------------------------------
Magnitude (a.u.)       :      0.000000000
Magnitude (Debye)      :      0.000000000



--------------------
Rotational spectrum 
--------------------
 
Rotational constants in cm-1:             0.000000             0.000000             0.000000 
Rotational constants in MHz :             0.000000             0.000000             0.000000 

Dipole components along the rotational axes: 
x,y,z [a.u.] :     0.000000     0.000000     0.000000 
x,y,z [Debye]:     0.000000     0.000000     0.000000 

 

-------------
DIPOLE MOMENT
-------------

Method             : MDCI(SD)
Type of density    : Electron Density
Multiplicity       :   3
Level              : Linearized density
Irrep              :   0
Energy             :     0.0000000000000000 Eh
Relativity type    : 
Basis              : AO
                                X                 Y                 Z
Electronic contribution:      0.000000000       0.000000000      -0.000000000
Nuclear contribution   :      0.000000000       0.000000000       0.000000000
                        -----------------------------------------
Total Dipole Moment    :      0.000000000       0.000000000      -0.000000000
                        -----------------------------------------
Magnitude (a.u.)       :      0.000000000
Magnitude (Debye)      :      0.000000000



--------------------
Rotational spectrum 
--------------------
 
Rotational constants in cm-1:             0.000000             0.000000             0.000000 
Rotational constants in MHz :             0.000000             0.000000             0.000000 

Dipole components along the rotational axes: 
x,y,z [a.u.] :     0.000000     0.000000    -0.000000 
x,y,z [Debye]:     0.000000     0.000000    -0.000000 

 

Dipole moment calculation done in   0.0 sec 

Maximum memory used throughout the entire PROP-calculation: 2.1 MB

--------------------------------
SUGGESTED CITATIONS FOR THIS RUN
--------------------------------

Below you find a list of papers that are relevant to this ORCA run
We neither can nor want to force you to cite these papers, but we appreciate if you do
You receive ORCA, which is the product of decades of hard work by many enthusiastic individuals, for free
The only thing we kindly ask in return is that you cite our papers,
We deeply appreciate it, if you show your appreciation for ORCA by not just citing the generic ORCA reference.

Please note that relegating all ORCA citations to the supporting information does *not* help us.
SI sections are not indexed - citations you put there will not count into any citation statistics
But we need these citations in order to attract the funding resources that allow us to do what we are doing

Therefore, if you are a happy ORCA user, please consider citing a few of the papers listed below in the main body of your paper

In addition to the list printed below, the program has created the file /home/ubuntu/Shiwei/qm9_reaction_eng/qm9_orca_work/qm9_orca_work_elem/c/c_mp2_631g.bibtex that contains the list in bibtex format
You can import this file easily into all common literature databanks and citation aid programs


List of essential papers. We consider these as the minimum necessary citations

  1. Neese,F.
     Software update: the ORCA program system, version 5.0
     WIRES Comput. Molec. Sci., 2022 12(1)e1606
     doi.org/10.1002/wcms.1606

List of papers to cite with high priority. The work reported in these papers was absolutely
necessary for this run to complete.
Our perspective: the developers of density functionals and basis sets usually get cited in chemistry papers
Good! But without the algorithms to do something with them, the functionals or basis sets would not do anything.
Hence, in our opinion, the algorithm design and method developments papers are equally worthy of getting cited

  1. Neese,F.
     The SHARK Integral Generation and Digestion System
     J. Comp. Chem., 2022  1-16
     doi.org/10.1002/jcc.26942

List of suggested additional citations. These are papers that are important in the 'surrounding' of 
of this run, or papers that preceded the highly important papers. If you like your results we are grateful for a citation.

  1. Neese,F.
     The ORCA program system
     WIRES Comput. Molec. Sci., 2012 2(1)73-78
     doi.org/10.1002/wcms.81
  2. Neese,F.
     Software update: the ORCA program system, version 4.0
     WIRES Comput. Molec. Sci., 2018 8(1)1-6
     doi.org/10.1002/wcms.1327
  3. Neese,F.; Wennmohs,F.; Becker,U.; Riplinger,C.
     The ORCA quantum chemistry program package
     J. Chem. Phys., 2020 152 Art. No. L224108
     doi.org/10.1063/5.0004608

List of optional additional citations

  1. Neese,F.
     Approximate second-order SCF convergence for spin unrestricted wavefunctions
     Chem. Phys. Lett., 2000 325(1-3)93-98
     doi.org/10.1016/s0009-2614(00)00662-x

Timings for individual modules:

Sum of individual times          ...        0.451 sec (=   0.008 min)
Startup calculation              ...        0.064 sec (=   0.001 min)  14.2 %
SCF iterations                   ...        0.083 sec (=   0.001 min)  18.3 %
Property integrals               ...        0.033 sec (=   0.001 min)   7.3 %
Property calculations            ...        0.034 sec (=   0.001 min)   7.5 %
MP2 module                       ...        0.068 sec (=   0.001 min)  15.0 %
MDCI module                      ...        0.165 sec (=   0.003 min)  36.7 %
Orbital localization             ...        0.004 sec (=   0.000 min)   1.0 %
                             ****ORCA TERMINATED NORMALLY****
TOTAL RUN TIME: 0 days 0 hours 0 minutes 0 seconds 550 msec
