
                                 *****************
                                 * O   R   C   A *
                                 *****************

                                            #,                                       
                                            ###                                      
                                            ####                                     
                                            #####                                    
                                            ######                                   
                                           ########,                                 
                                     ,,################,,,,,                         
                               ,,#################################,,                 
                          ,,##########################################,,             
                       ,#########################################, ''#####,          
                    ,#############################################,,   '####,        
                  ,##################################################,,,,####,       
                ,###########''''           ''''###############################       
              ,#####''   ,,,,##########,,,,          '''####'''          '####       
            ,##' ,,,,###########################,,,                        '##       
           ' ,,###''''                  '''############,,,                           
         ,,##''                                '''############,,,,        ,,,,,,###''
      ,#''                                            '''#######################'''  
     '                                                          ''''####''''         
             ,#######,   #######,   ,#######,      ##                                
            ,#'     '#,  ##    ##  ,#'     '#,    #''#        ,####,   ,####,        
            ##       ##  ##   ,#'  ##            #'  '#       #'       #'  '#        
            ##       ##  #######   ##           ,######,      #####,   #    #        
            '#,     ,#'  ##    ##  '#,     ,#' ,#      #,     #,   #   #,  ,#        
             '#######'   ##     ##  '#######'  #'      '#     '####' # '####'        



                #########################################################
                #                        -***-                          #
                #          Department of theory and spectroscopy        #
                #                                                       #
                #                      Frank Neese                      #
                #                                                       #
                #     Directorship, Architecture, Infrastructure        #
                #                    SHARK, DRIVERS                     #
                #        Core code/Algorithms in most modules           #
                #                                                       #
                #        Max Planck Institute fuer Kohlenforschung      #
                #                Kaiser Wilhelm Platz 1                 #
                #                 D-45470 Muelheim/Ruhr                 #
                #                      Germany                          #
                #                                                       #
                #                  All rights reserved                  #
                #                        -***-                          #
                #########################################################


                         Program Version 6.0.1  -  RELEASE   -


 With contributions from (in alphabetic order):
[Max-Planck-Institut fuer Kohlenforschung]                               
  Daniel Aravena         : Magnetic Suceptibility                        
  Michael Atanasov       : Ab Initio Ligand Field Theory (pilot matlab implementation)
  Alexander A. Auer      : GIAO ZORA, VPT2 properties, NMR spectrum      
  Ute Becker             : All parallelization in ORCA, NUMFREQ, NUMCALC 
  Giovanni Bistoni       : ED, misc. LED, open-shell LED, HFLD           
  Martin Brehm           : Molecular dynamics                            
  Dmytro Bykov           : pre 5.0 version of the SCF Hessian            
  Marcos Casanova-Páez   : Triplet and SCS-CIS(D). UHF-(DLPNO)-IP/EA/STEOM-CCSD. UHF-CVS-IP/STEOM-CCSD   
  Vijay G. Chilkuri      : MRCI spin determinant printing, contributions to CSF-ICE 
  Pauline Colinet        : FMM embedding                                 
  Dipayan Datta          : RHF DLPNO-CCSD density                        
  Achintya Kumar Dutta   : EOM-CC, STEOM-CC                              
  Nicolas Foglia         : Exact transition moments, OPA infrastructure, MCD improvements    
  Dmitry Ganyushin       : Spin-Orbit,Spin-Spin,Magnetic field MRCI      
  Miquel Garcia-Rates    : C-PCM and meta-GGA Hessian, CCSD/C-PCM, Gaussian charge scheme 
  Tiago L. C. Gouveia    : GS-ROHF, GS-ROCIS                             
  Yang Guo               : DLPNO-NEVPT2, F12-NEVPT2, CIM, IAO-localization        
  Andreas Hansen         : Spin unrestricted coupled pair/coupled cluster methods 
  Ingolf Harden          : AUTO-CI MPn and infrastructure                
  Benjamin Helmich-Paris : MC-RPA, TRAH-(SCF,CASSCF), AVAS, COSX integrals, SCF dyn. polar. 
  Lee Huntington         : MR-EOM, pCC                                   
  Robert Izsak           : Overlap fitted RIJCOSX, COSX-SCS-MP3, EOM     
  Riya Kayal             : Wick's Theorem for AUTO-CI, AUTO-CI UHF-CCSDT 
  Emily Kempfer          : AUTO-CI, RHF CISDT and CCSDT                  
  Christian Kollmar      : KDIIS, OOCD, Brueckner-CCSD(T), CCSD density, CASPT2, CASPT2-K, improved NEVPT2 
  Axel Koslowski         : Symmetry handling                             
  Simone Kossmann        : meta-GGA functionals, TD-DFT gradient, OOMP2, (MP2 Hessian; deprecated post 5.0) 
  Lucas Lang             : DCDCAS                                        
  Marvin Lechner         : AUTO-CI (C++ implementation), FIC-MRCC        
  Spencer Leger          : CASSCF response                               
  Dagmar Lenk            : GEPOL surface, SMD, ORCA-2-JSON               
  Dimitrios Liakos       : Extrapolation schemes; Compound Job, initial MDCI parallelization 
  Dimitrios Manganas     : Further ROCIS development; embedding schemes. LFT, Crystal Embedding 
  Dimitrios Pantazis     : SARC Basis sets                               
  Anastasios Papadopoulos: AUTO-CI, single reference methods and gradients 
  Taras Petrenko         : pre 6.0 DFT Hessian and TD-DFT gradient, (ASA, deprecated), ECA, 1-Electron XAS/XES, NRVS 
  Peter Pinski           : DLPNO-MP2, DLPNO-MP2 Gradient                 
  Christoph Reimann      : Effective Core Potentials                     
  Marius Retegan         : Local ZFS, SOC                                
  Christoph Riplinger    : Optimizer, TS searches, QM/MM, DLPNO-CCSD(T), (RO)-DLPNO pert. Triples 
  Michael Roemelt        : Original ROCIS implementation                 
  Masaaki Saitow         : Open-shell DLPNO-CCSD energy and density      
  Barbara Sandhoefer     : DKH picture change effects                    
  Kantharuban Sivalingam : CASSCF convergence/infrastructure, NEVPT2 and variants, FIC-MRCI 
  Bernardo de Souza      : ESD, SOC TD-DFT                               
  Georgi L. Stoychev     : AutoAux, RI-MP2 NMR, DLPNO-MP2 response, X2C  
  Van Anh Tran           : RI-MP2 g-tensors                              
  Willem Van den Heuvel  : Paramagnetic NMR                              
  Zikuan Wang            : NOTCH, Electric field optimization            
  Frank Wennmohs         : Technical directorship and infrastructure     
  Hang Xu                : AUTO-CI-Response properties                   
                                                                         
[FACCTs GmbH]                                                            
  Markus Bursch, Miquel Garcia-Rates, Christoph Riplinger, Bernardo de Souza, Georgi L. Stoychev 
                                                                 
  APM, Basis sets (HGBS, AHGBS, def-TZVP (Ac-Lr), def2-XVPD (La-Lu)), CI-OPT, improved COSX, DLPNO-Multilevel,           
  DOCKER, DRACO, updates on ESD, GOAT, IRC, LR-CPCM, MBIS, meta-GGA TD-DFT gradient, ML-optimized integration grids, 
  MM, NACMEs, nearIR, NEB, NEB-TS, NL-DFT gradient (VV10), 2- and 3-layer-ONIOM, interface openCOSMO-RS, QMMM,   
  Crystal-QMMM, SF, symmetry and pop. for TD-DFT, r2SCAN hybrids, SOLVATOR                                   
                                                                         
[Other institutions]                                                     
  V. Asgeirsson          : NEB                                           
  Christoph Bannwarth    : sTDA-DFT, sTD-DFT, PBEh-3c, B97-3c, D3        
  Sebastian Ehlert       : rSCAN, r2SCAN, r2SCAN-3c, D4, dhf basis sets  
  Marvin Friede          : D4 for Fr, Ra, Ac-Lr                          
  Lars Goerigk           : TD-DFT with DH, B97 family of functionals     
  Stefan Grimme          : VdW corrections, initial TS optimization, DFT functionals, gCP, sTDA/sTD-DF 
  Waldemar Hujo          : DFT-NL                                        
  H. Jonsson             : NEB                                           
  Holger Kruse           : gCP                                           
  Marcel Mueller         : wB97X-3c, vDZP basis set                      
  Hagen Neugebauer       : wr2SCAN                                       
  Tobias Risthaus        : range-separated hybrid DFT                    
  Lukas Wittmann         : regularized MP2, r2SCAN double-hybrids, wr2SCAN        
                                                                         
We gratefully acknowledge several colleagues who have allowed us to      
interface, adapt or use parts of their codes:                            
  Ed Valeev, F. Pavosevic, A. Kumar             : LibInt (2-el integral package), F12 methods 
  Garnet Chan, S. Sharma, J. Yang, R. Olivares  : DMRG                   
  Ulf Ekstrom                                   : XCFun DFT Library      
  Mihaly Kallay                                 : mrcc  (arbitrary order and MRCC methods)
  Frank Weinhold                                : gennbo (NPA and NBO analysis)           
  Simon Mueller                                 : openCOSMO-RS                            
  Christopher J. Cramer and Donald G. Truhlar   : smd solvation model                     
  S Lehtola, MJT Oliveira, MAL Marques          : LibXC Library                           
  Liviu Ungur et al                             : ANISO software                          


 Your calculation uses the libint2 library for the computation of 2-el integrals
 For citations please refer to: http://libint.valeyev.net

 Your ORCA version has been built with support for libXC version: 6.2.2
 For citations please refer to: https://libxc.gitlab.io

 This ORCA versions uses:
   CBLAS   interface :  Fast vector & matrix operations
   LAPACKE interface :  Fast linear algebra routines
   SCALAPACK package :  Parallel linear algebra routines
   Shared memory     :  Shared parallel matrices
   BLAS/LAPACK       :  OpenBLAS 0.3.27  USE64BITINT DYNAMIC_ARCH NO_AFFINITY Haswell SINGLE_THREADED
        Core in use  :  Haswell
   Copyright (c) 2011-2014, The OpenBLAS Project


NOTE: MaxCore=8000 MB was set to SCF,MP2,MDCI,CIPSI,MRCI and CIS
      => If you want to overwrite this, your respective input block should be placed after the MaxCore statement
================================================================================

----- Orbital basis set information -----
Your calculation utilizes the basis: 6-31+G**
   H-He, Li-Ne : W. J. Hehre, R. Ditchfield and J.A. Pople, J. Chem. Phys. 56, 2257 (1972).
                 Note: He and Ne are unpublished basis sets taken from the Gaussian program.
                 Note: Li and B from J. D. Dill and J. A. Pople, J. Chem. Phys. 62, 2921 (1975).
   Na - Ar     : M. M. Francl, W. J. Pietro, W. J. Hehre, J. S. Binkley, M. S. Gordon, 
                 D. J. DeFrees and J. A. Pople, J. Chem. Phys. 77, 3654 (1982).
   K - Zn      : V. A. Rassolov, J. A. Pople, M. A. Ratner, and T. L. Windus, J. Chem. Phys. 109, 1223 (1998).
   Additional Pol./Diff. from the 6-311G equivalent.

----- AuxC basis set information -----
Your calculation utilizes the auxiliary basis: def2-SVP/C
  H-La, Hf-Rn : A. Hellweg, C. Hattig, S. Hofener and W. Klopper, Theor. Chem. Acc. 117, 587 (2007).
        Ce-Lu : J. Chmela and M. E. Harding, Mol. Phys. (2018).

----- AuxJK basis set information -----
Your calculation utilizes the auxiliary basis: def2/JK
   H-Ba, Hf-Rn: F. Weigend, J. Comput. Chem. 29, 167 (2008).

================================================================================
                                        WARNINGS
                       Please study these warnings very carefully!
================================================================================

WARNING: Old DensityContainer found on disk!
         Will remove this file - 
         If you want to keep old densities, please start your calculation with a different basename. 


WARNING: your system is open-shell and RHF/RKS was chosen
  ===> : WILL SWITCH to UHF/UKS


WARNING: Post HF methods need fully converged wavefunctions
  ===> : Setting SCFConvForced true
         You can overwrite this default with %scf ConvForced false 


WARNING: Restarting MDCI calulations with QROs will lead to 
         significant changes in the QROs!
  ===> : For restart on a converged wavefunction better use NoIter or MaxIter=0


WARNING: PNO calculations with unrestricted orbitals require UNOs
  ===> : Switching on UNOs

WARNING: Unrestricted DLPNO-CCSD(T0/T) with FullLMP2-Guess requested.
         This is not yet implemented.
         When comparing energies between closed and open shell calculations:
  ===> : Be aware to set UseFullLMP2Guess to false for the corresponding closed shell calculations.
         Note that UseFullLMP2Guess is done by default only for TightPNO closed shell calculations.


WARNING: MDCI localization with Augmented Hessian Foster-Boys
  ===> : Switching off randomization!

WARNING: UseCISUpdate is  only available for RHF calculations...
  ===> : Setting UseCISUpdate = false 

================================================================================
                                       INPUT FILE
================================================================================
NAME = /home/ubuntu/Shiwei/qm9_reaction_eng/qm9_orca_work/qm9_orca_work_elem/f/f_ccsdt_631+gss.inp
|  1> ! DLPNO-CCSD(T) 6-31+G** def2/JK RIJK def2-SVP/C
|  2> %maxcore 8000
|  3> %method
|  4> FrozenCore FC_ELECTRONS
|  5> end
|  6> 
|  7> %mdci
|  8>    TCutPairs 1e-6
|  9>    printlevel 4
| 10> end
| 11> 
| 12> %loc
| 13> LocMet AHFB
| 14> OCC true
| 15> end
| 16> 
| 17> *xyz 0 2
| 18> F 0.0 0.0 0.0
| 19> *
| 20> 
| 21>                          ****END OF INPUT****
================================================================================

                       ****************************
                       * Single Point Calculation *
                       ****************************

---------------------------------
CARTESIAN COORDINATES (ANGSTROEM)
---------------------------------
  F      0.000000    0.000000    0.000000

----------------------------
CARTESIAN COORDINATES (A.U.)
----------------------------
  NO LB      ZA    FRAG     MASS         X           Y           Z
   0 F     9.0000    0    18.998    0.000000    0.000000    0.000000

--------------------------------
INTERNAL COORDINATES (ANGSTROEM)
--------------------------------
 F      0   0   0     0.000000000000     0.00000000     0.00000000

---------------------------
INTERNAL COORDINATES (A.U.)
---------------------------
 F      0   0   0     0.000000000000     0.00000000     0.00000000

---------------------
BASIS SET INFORMATION
---------------------
There are 1 groups of distinct atoms

 Group   1 Type F   : 11s5p1d contracted to 4s3p1d pattern {6311/311/1}

Atom   0F    basis set group =>   1
---------------------------------
AUXILIARY/C BASIS SET INFORMATION
---------------------------------
There are 1 groups of distinct atoms

 Group   1 Type F   : 8s6p5d3f contracted to 6s5p4d1f pattern {311111/21111/2111/3}

Atom   0F    basis set group =>   1
----------------------------------
AUXILIARY/JK BASIS SET INFORMATION
----------------------------------
There are 1 groups of distinct atoms

 Group   1 Type F   : 14s10p6d2f1g contracted to 10s8p4d2f1g pattern {5111111111/31111111/3111/11/1}

Atom   0F    basis set group =>   1

Checking for AutoStart:
The File: /home/ubuntu/Shiwei/qm9_reaction_eng/qm9_orca_work/qm9_orca_work_elem/f/f_ccsdt_631+gss.gbw exists
Trying to determine its content:
     ... Fine, the file contains calculation information
     ... Fine, the calculation information was read
     ... Fine, the file contains a basis set
     ... Fine, the basis set was read
     ... Fine, the file contains a geometry
     ... Fine, the geometry was read
     ... Fine, the file contains a set of orbitals
     ... Fine, the orbitals can be read
     => possible old guess file was deleted
     => GBW file was renamed to GES file
     => GES file is set as startup file
     => Guess is set to MORead
     ... now leaving AutoStart

------------------------------------------------------------------------------
                             ORCA STARTUP CALCULATIONS
                           -- RI-GTO INTEGRALS CHOSEN --
------------------------------------------------------------------------------
------------------------------------------------------------------------------
                   ___                                                        
                  /   \      - P O W E R E D   B Y -                         
                 /     \                                                     
                 |  |  |   _    _      __       _____    __    __             
                 |  |  |  | |  | |    /  \     |  _  \  |  |  /  |          
                  \  \/   | |  | |   /    \    | | | |  |  | /  /          
                 / \  \   | |__| |  /  /\  \   | |_| |  |  |/  /          
                |  |  |   |  __  | /  /__\  \  |    /   |      \           
                |  |  |   | |  | | |   __   |  |    \   |  |\   \          
                \     /   | |  | | |  |  |  |  | |\  \  |  | \   \       
                 \___/    |_|  |_| |__|  |__|  |_| \__\ |__|  \__/        
                                                                              
                      - O R C A' S   B I G   F R I E N D -                    
                                      &                                       
                       - I N T E G R A L  F E E D E R -                       
                                                                              
 v1 FN, 2020, v2 2021, v3 2022-2024                                           
------------------------------------------------------------------------------


----------------------
SHARK INTEGRAL PACKAGE
----------------------

Number of atoms                             ...      1
Number of basis functions                   ...     18
Number of shells                            ...      8
Maximum angular momentum                    ...      2
Integral batch strategy                     ... SHARK/LIBINT Hybrid
RI-J (if used) integral strategy            ... SPLIT-RIJ (Revised 2003 algorithm where possible)
Printlevel                                  ...      1
Contraction scheme used                     ... SEGMENTED contraction
Prescreening option                         ... SCHWARTZ
   Thresh                                   ... 1.000e-10
   Tcut                                     ... 1.000e-11
   Tpresel                                  ... 1.000e-11 
Coulomb Range Separation                    ... NOT USED
Exchange Range Separation                   ... NOT USED
Multipole approximations                    ... NOT USED
Finite Nucleus Model                        ... NOT USED
CABS basis                                  ... NOT available
Auxiliary Coulomb fitting basis             ... NOT available
Auxiliary J/K fitting basis                 ... AVAILABLE
   # of basis functions in Aux-JK           ...     77
   # of shells in Aux-JK                    ...     25
   Maximum angular momentum in Aux-JK       ...      4
Auxiliary Correlation fitting basis         ... AVAILABLE
   # of basis functions in Aux-C            ...     48
   # of shells in Aux-C                     ...     16
   Maximum angular momentum in Aux-C        ...      3
Auxiliary 'external' fitting basis          ... NOT available

Checking pre-screening integrals            ... done (  0.0 sec) Dimension = 8
Check shell pair data                       ... done (  0.0 sec)
Shell pair information
Shell pair cut-off parameter TPreSel        ...   1.0e-11
Total number of shell pairs                 ...        36
Shell pairs after pre-screening             ...        36
Total number of primitive shell pairs       ...       174
Primitive shell pairs kept                  ...       174
          la=0 lb=0:     10 shell pairs
          la=1 lb=0:     12 shell pairs
          la=1 lb=1:      6 shell pairs
          la=2 lb=0:      4 shell pairs
          la=2 lb=1:      3 shell pairs
          la=2 lb=2:      1 shell pairs

Calculating one electron integrals          ... done (  0.0 sec)
Calculating RI/JK V-Matrix + Cholesky decomp... done (  0.0 sec)
Calculating RI/C V-Matrix + Cholesky decomp.... done (  0.0 sec)
Calculating Nuclear repulsion               ... done (  0.0 sec) ENN=      0.000000000000 Eh

Diagonalization of the overlap matrix:
Smallest eigenvalue                        ... 9.400e-02
Time for diagonalization                   ...    0.000 sec
Threshold for overlap eigenvalues          ... 1.000e-07
Number of eigenvalues below threshold      ... 0
Time for construction of square roots      ...    0.000 sec
Total time needed                          ...    0.000 sec

-------------------
DFT GRID GENERATION
-------------------

General Integration Accuracy     IntAcc      ... 4.388
Radial Grid Type                 RadialGrid  ... OptM3 with GC (2021)
Angular Grid (max. ang.)         AngularGrid ... 4 (Lebedev-302)
Angular grid pruning method      GridPruning ... 4 (adaptive)
Weight generation scheme         WeightScheme... mBecke (2022)
Basis function cutoff            BFCut       ... 1.0000e-10
Integration weight cutoff        WCut        ... 1.0000e-14
Partially contracted basis set               ... off
Rotationally invariant grid construction     ... off
Angular grids for H and He will be reduced by one unit
Diffuse basis detected: some atoms will have their outermost
                        angular grid increased by 1.

Total number of grid points                  ...     6460
Total number of batches                      ...      101
Average number of points per batch           ...       63
Average number of grid points per atom       ...     6460
Initializing property integral containers    ... done (  0.0 sec)

SHARK setup successfully completed in   0.0 seconds

Maximum memory used throughout the entire STARTUP-calculation: 9.5 MB
-------------------------------------------------------------------------------
                                 ORCA GUESS
                   Start orbitals & Density for SCF / CASSCF
-------------------------------------------------------------------------------

------------
SCF SETTINGS
------------
Hamiltonian:
 Ab initio Hamiltonian  Method          .... Hartree-Fock(GTOs)
 RI-approximation to the Coulomb term is turned on
   Number of AuxJK basis functions      .... 77
   RI-JK (J+K treated both via RI)      .... on


General Settings:
 Integral files         IntName         .... /home/ubuntu/Shiwei/qm9_reaction_eng/qm9_orca_work/qm9_orca_work_elem/f/f_ccsdt_631+gss
 Hartree-Fock type      HFTyp           .... UHF
 Total Charge           Charge          ....    0
 Multiplicity           Mult            ....    2
 Number of Electrons    NEL             ....    9
 Basis Dimension        Dim             ....   18
 Nuclear Repulsion      ENuc            ....      0.0000000000 Eh

Convergence Acceleration:
 AO-DIIS                CNVDIIS         .... on
   Start iteration      DIISMaxIt       ....    12
   Startup error        DIISStart       ....  0.200000
   # of expansion vecs  DIISMaxEq       ....     5
   Bias factor          DIISBfac        ....   1.050
   Max. coefficient     DIISMaxC        ....  10.000
 MO-DIIS                CNVKDIIS        .... off
 Trust-Rad. Augm. Hess. CNVTRAH         .... auto
   Auto Start mean grad. ratio tolernc. ....  1.125000
   Auto Start start iteration           ....     1
   Auto Start num. interpolation iter.  ....    10
   Max. Number of Micro iterations      ....    24
   Max. Number of Macro iterations      .... Maxiter - #DIIS iter
   Number of Davidson start vectors     ....     2
   Converg. threshold    (grad. norm)   ....   5.000e-05
   Grad. Scal. Fac. for Micro threshold ....   0.100
   Minimum threshold for Micro iter.    ....   1.000e-02
   NR start threshold (gradient norm)   ....   1.000e-04
   Initial trust radius                 ....   0.400
   Minimum AH scaling param. (alpha)    ....   1.000
   Maximum AH scaling param. (alpha)    .... 1000.000
   Quad. conv. algorithm                .... NR
   White noise on init. David. guess    .... on
   Maximum white noise                  ....   0.010
   Pseudo random numbers                .... off
   Inactive MOs                         .... canonical
   Orbital update algorithm             .... Taylor
   Preconditioner                       .... Diag
   Full preconditioner red. dimension   ....   250
 SOSCF                  CNVSOSCF        .... on
   Start iteration      SOSCFMaxIt      ....   150
   Startup grad/error   SOSCFStart      ....  0.003300
   Hessian update       SOSCFHessUp     .... L-BFGS
 Level Shifting         CNVShift        .... on
   Level shift para.    LevelShift      ....    0.2500
   Turn off err/grad.   ShiftErr        ....    0.0010
 Zerner damping         CNVZerner       .... off
 Static damping         CNVDamp         .... on
   Fraction old density DampFac         ....    0.7000
   Max. Damping (<1)    DampMax         ....    0.9800
   Min. Damping (>=0)   DampMin         ....    0.0000
   Turn off err/grad.   DampErr         ....    0.1000

SCF Procedure:
 Maximum # iterations   MaxIter         ....   125
 SCF integral mode      SCFMode         .... Direct
   Integral package                     .... SHARK and LIBINT hybrid scheme
 Reset frequency        DirectResetFreq ....    20
 Integral Threshold     Thresh          ....  1.000e-10 Eh
 Primitive CutOff       TCut            ....  1.000e-11 Eh

Convergence Tolerance:
 Convergence Check Mode ConvCheckMode   .... Total+1el-Energy
 Convergence forced     ConvForced      .... 1
 Energy Change          TolE            ....  1.000e-06 Eh
 1-El. energy change                    ....  1.000e-03 Eh
 Orbital Gradient       TolG            ....  5.000e-05
 Orbital Rotation angle TolX            ....  5.000e-05
 DIIS Error             TolErr          ....  1.000e-06

---------------------
INITIAL GUESS: MOREAD
---------------------
Guess MOs are being read from file: /home/ubuntu/Shiwei/qm9_reaction_eng/qm9_orca_work/qm9_orca_work_elem/f/f_ccsdt_631+gss.ges
Input Geometry matches current geometry (good)
Input basis set matches current basis set (good)
MOs were renormalized
MOs were reorthogonalized (Cholesky)
                      ------------------
                      INITIAL GUESS DONE (   0.0 sec)
                      ------------------
             **** ENERGY FILE WAS UPDATED (/home/ubuntu/Shiwei/qm9_reaction_eng/qm9_orca_work/qm9_orca_work_elem/f/f_ccsdt_631+gss.en.tmp) ****
Finished Guess after   0.0 sec
Maximum memory used throughout the entire GUESS-calculation: 5.3 MB

-------------------------------------------------------------------------------------------
                                      ORCA LEAN-SCF
                              memory conserving SCF solver
-------------------------------------------------------------------------------------------

----------------------------------------D-I-I-S--------------------------------------------
Iteration    Energy (Eh)           Delta-E    RMSDP     MaxDP     DIISErr   Damp  Time(sec)
-------------------------------------------------------------------------------------------
                              *** Initializing SOSCF ***
---------------------------------------S-O-S-C-F--------------------------------------
Iteration    Energy (Eh)           Delta-E    RMSDP     MaxDP     MaxGrad    Time(sec)
--------------------------------------------------------------------------------------
    1    -99.3700090204123114     0.00e+00  3.57e-06  2.24e-05  4.35e-06     0.0
    2    -99.3700090256031956    -5.19e-09  1.61e-06  1.11e-05  1.56e-05     0.0
    3    -99.3700090270678231    -1.46e-09  1.69e-06  1.25e-05  8.22e-06     0.0
                 **** Energy Check signals convergence ****

               *****************************************************
               *                     SUCCESS                       *
               *           SCF CONVERGED AFTER   3 CYCLES          *
               *****************************************************

             **** ENERGY FILE WAS UPDATED (/home/ubuntu/Shiwei/qm9_reaction_eng/qm9_orca_work/qm9_orca_work_elem/f/f_ccsdt_631+gss.en.tmp) ****

----------------
TOTAL SCF ENERGY
----------------

Total Energy       :        -99.37000902706782 Eh           -2703.99541 eV

Components:
Nuclear Repulsion  :          0.00000000000000 Eh               0.00000 eV
Electronic Energy  :        -99.37000902706782 Eh           -2703.99541 eV
One Electron Energy:       -139.11458125270869 Eh           -3785.50021 eV
Two Electron Energy:         39.74457222564087 Eh            1081.50479 eV

Virial components:
Potential Energy   :       -198.67807628932516 Eh           -5406.30531 eV
Kinetic Energy     :         99.30806726225734 Eh            2702.30989 eV
Virial Ratio       :          2.00062373346414

---------------
SCF CONVERGENCE
---------------

  Last Energy change         ...    1.4646e-09  Tolerance :   1.0000e-06
  Last MAX-Density change    ...    1.2488e-05  Tolerance :   1.0000e-05
  Last RMS-Density change    ...    1.6929e-06  Tolerance :   1.0000e-06
  Last DIIS Error            ...    3.6101e-05  Tolerance :   1.0000e-06
  Last Orbital Gradient      ...    8.2154e-06  Tolerance :   5.0000e-05
  Last Orbital Rotation      ...    1.1560e-05  Tolerance :   5.0000e-05


----------------------
UHF SPIN CONTAMINATION
----------------------

Expectation value of <S**2>     :     0.753492
Ideal value S*(S+1) for S=0.5   :     0.750000
Deviation                       :     0.003492

----------------
ORBITAL ENERGIES
----------------
                 SPIN UP ORBITALS
  NO   OCC          E(Eh)            E(eV) 
   0   1.0000     -26.422304      -718.9875 
   1   1.0000      -1.675539       -45.5937 
   2   1.0000      -0.843865       -22.9627 
   3   1.0000      -0.734979       -19.9998 
   4   1.0000      -0.734979       -19.9998 
   5   0.0000       0.240045         6.5320 
   6   0.0000       0.282487         7.6869 
   7   0.0000       0.299307         8.1446 
   8   0.0000       0.299307         8.1446 
   9   0.0000       1.666852        45.3573 
  10   0.0000       1.733038        47.1584 
  11   0.0000       1.733038        47.1584 
  12   0.0000       2.020803        54.9888 
  13   0.0000       2.041522        55.5526 
  14   0.0000       2.041522        55.5526 
  15   0.0000       2.078010        56.5455 

                 SPIN DOWN ORBITALS
  NO   OCC          E(Eh)            E(eV) 
   0   1.0000     -26.372797      -717.6403 
   1   1.0000      -1.481157       -40.3043 
   2   1.0000      -0.679909       -18.5013 
   3   1.0000      -0.679909       -18.5013 
   4   0.0000       0.034933         0.9506 
   5   0.0000       0.249557         6.7908 
   6   0.0000       0.303657         8.2629 
   7   0.0000       0.303657         8.2629 
   8   0.0000       0.360512         9.8100 
   9   0.0000       1.757318        47.8191 
  10   0.0000       1.757318        47.8191 
  11   0.0000       1.860097        50.6158 
  12   0.0000       2.102366        57.2083 
  13   0.0000       2.102366        57.2083 
  14   0.0000       2.116843        57.6022 
*Only the first 10 virtual orbitals were printed.

                    ********************************
                    * MULLIKEN POPULATION ANALYSIS *
                    ********************************

--------------------------------------------
MULLIKEN ATOMIC CHARGES AND SPIN POPULATIONS
--------------------------------------------
   0 F :    0.000000    1.000000
Sum of atomic charges         :    0.0000000
Sum of atomic spin populations:    1.0000000

-----------------------------------------------------
MULLIKEN REDUCED ORBITAL CHARGES AND SPIN POPULATIONS
-----------------------------------------------------
CHARGE
  0 F s       :     3.999141  s :     3.999141
      pz      :     1.241712  p :     5.000000
      px      :     1.842110
      py      :     1.916178
      dz2     :     0.000349  d :     0.000859
      dxz     :     0.000309
      dyz     :     0.000164
      dx2y2   :     0.000004
      dxy     :     0.000034


SPIN
  0 F s       :     0.000221  s :     0.000221
      pz      :     0.758288  p :     1.000000
      px      :     0.157890
      py      :     0.083822
      dz2     :    -0.000090  d :    -0.000221
      dxz     :    -0.000079
      dyz     :    -0.000042
      dx2y2   :    -0.000001
      dxy     :    -0.000009



                     *******************************
                     * LOEWDIN POPULATION ANALYSIS *
                     *******************************

-------------------------------------------
LOEWDIN ATOMIC CHARGES AND SPIN POPULATIONS
-------------------------------------------
   0 F :    0.000000    1.000000

----------------------------------------------------
LOEWDIN REDUCED ORBITAL CHARGES AND SPIN POPULATIONS
----------------------------------------------------
CHARGE
  0 F s       :     3.999141  s :     3.999141
      pz      :     1.241712  p :     5.000000
      px      :     1.842110
      py      :     1.916178
      dz2     :     0.000349  d :     0.000859
      dxz     :     0.000309
      dyz     :     0.000164
      dx2y2   :     0.000004
      dxy     :     0.000034


SPIN
  0 F s       :     0.000221  s :     0.000221
      pz      :     0.758288  p :     1.000000
      px      :     0.157890
      py      :     0.083822
      dz2     :    -0.000090  d :    -0.000221
      dxz     :    -0.000079
      dyz     :    -0.000042
      dx2y2   :    -0.000001
      dxy     :    -0.000009



                      *****************************
                      * MAYER POPULATION ANALYSIS *
                      *****************************

  NA   - Mulliken gross atomic population
  ZA   - Total nuclear charge
  QA   - Mulliken gross atomic charge
  VA   - Mayer's total valence
  BVA  - Mayer's bonded valence
  FA   - Mayer's free valence

  ATOM       NA         ZA         QA         VA         BVA        FA
  0 F      9.0000     9.0000     0.0000     1.0070     0.0000     1.0070

  Mayer bond orders larger than 0.100000
  => no bond orders to print

             ***UHF Natural Spin-Orbitals were saved in /home/ubuntu/Shiwei/qm9_reaction_eng/qm9_orca_work/qm9_orca_work_elem/f/f_ccsdt_631+gss.unso***
                ***UHF Natural Orbitals were saved in /home/ubuntu/Shiwei/qm9_reaction_eng/qm9_orca_work/qm9_orca_work_elem/f/f_ccsdt_631+gss.uno***
QR-MO GENERATION
 Dim     =   18
 Mult    =    2
 NEl     =    9
 N(DOMO) =    4
 N(SOMO) =    1
 N(VMO)  =   13

                ***Quasi-Restricted Orbitals were saved in /home/ubuntu/Shiwei/qm9_reaction_eng/qm9_orca_work/qm9_orca_work_elem/f/f_ccsdt_631+gss.qro***

Orbital Energies of Quasi-Restricted MO's
   0( 2) :   -26.372786 a.u.  -717.640 eV
   1( 2) :    -1.479283 a.u.   -40.253 eV
   2( 2) :    -0.679684 a.u.   -18.495 eV
   3( 2) :    -0.679684 a.u.   -18.495 eV
   4( 1) :    -0.363125 a.u.    -9.881 eV alpha=  -22.963 beta=    3.200
   5( 0) :     0.239882 a.u.     6.528 eV
   6( 0) :     0.282487 a.u.     7.687 eV
   7( 0) :     0.299194 a.u.     8.141 eV
   8( 0) :     0.299194 a.u.     8.141 eV
   9( 0) :     1.666852 a.u.    45.357 eV
  10( 0) :     1.732920 a.u.    47.155 eV
  11( 0) :     1.732920 a.u.    47.155 eV
  12( 0) :     2.019600 a.u.    54.956 eV
  13( 0) :     2.041522 a.u.    55.553 eV
  14( 0) :     2.041522 a.u.    55.553 eV
  15( 0) :     2.077440 a.u.    56.530 eV
  16( 0) :     2.095103 a.u.    57.011 eV
  17( 0) :     2.095103 a.u.    57.011 eV
-------
TIMINGS
-------

Total SCF time: 0 days 0 hours 0 min 0 sec 

Total time                  ....       0.038 sec
Sum of individual times     ....       0.031 sec  ( 82.2%)

SCF preparation             ....       0.019 sec  ( 49.4%)
Fock matrix formation       ....       0.007 sec  ( 19.5%)
  Startup                   ....       0.000 sec  (  3.9% of F)
  RI-JK                     ....       0.002 sec  ( 33.1% of F)
Diagonalization             ....       0.000 sec  (  0.0%)
Density matrix formation    ....       0.000 sec  (  0.9%)
Total Energy calculation    ....       0.000 sec  (  0.3%)
Population analysis         ....       0.003 sec  (  8.7%)
Orbital Transformation      ....       0.000 sec  (  0.8%)
Orbital Orthonormalization  ....       0.000 sec  (  0.0%)
DIIS solution               ....       0.000 sec  (  0.6%)
SOSCF solution              ....       0.001 sec  (  1.9%)
Finished LeanSCF after   0.0 sec

Maximum memory used throughout the entire LEANSCF-calculation: 4.5 MB

------------------------------------------------------------------------------
                         ORCA PROPERTY INTEGRAL CALCULATIONS
------------------------------------------------------------------------------

GBWName                                   ... /home/ubuntu/Shiwei/qm9_reaction_eng/qm9_orca_work/qm9_orca_work_elem/f/f_ccsdt_631+gss.gbw
Number of atoms                           ...      1
Number of basis functions                 ...     18
Max core memory                           ...   8000 MB

Dipole integrals                          ... YES
Quadrupole integrals                      ...  NO
Linear momentum integrals                 ... YES
Angular momentum integrals                ... YES
Higher moments length integrals           ...  NO
Higher moments velocity integrals         ...  NO
Kinetic energy integrals                  ...  NO
GIAO right hand sides                     ...  NO
GIAO dipole derivative integrals          ...  NO
SOC integrals                             ...  NO
EPR diamagnetic integrals (GIAO)          ...  NO
EPR gauge integrals                       ...  NO
Field gradient integrals                  ...  NO (   0 nuclei)
Spin-dipole/Fermi contact integrals       ...  NO (   0 nuclei)
Contact density integrals                 ...  NO (   0 nuclei)
Nucleus-orbit integrals                   ...  NO (   0 nuclei)
Geometric perturbations                   ...  NO (   1 nuclei)

Choice of electric origin   ... Center of mass
Position of electric origin ... (  0.0000,  0.0000,  0.0000) 
Choice of magnetic origin   ... GIAO
Position of magnetic origin ... (  0.0000,  0.0000,  0.0000) 

Calculating integrals                     ... Electric Dipole (Length)     done (  0.0 sec)
Calculating integrals                     ... Linear Momentum              done (  0.0 sec)
Calculating integrals                     ... Angular Momentum  (ElOri)    done (  0.0 sec)

Property integrals calculated in   0.0 sec

Maximum memory used throughout the entire PROPINT-calculation: 5.5 MB
------------------------------------------------------------------------------
                           ORCA ORBITAL LOCALIZATION
------------------------------------------------------------------------------

Input orbitals are from                  ... /home/ubuntu/Shiwei/qm9_reaction_eng/qm9_orca_work/qm9_orca_work_elem/f/f_ccsdt_631+gss.gbw
Output orbitals are to                   ... /home/ubuntu/Shiwei/qm9_reaction_eng/qm9_orca_work/qm9_orca_work_elem/f/f_ccsdt_631+gss.loc
Max. number of iterations                ... 128
Localizations seeded randomly            ... on
Convergence tolerance                    ... 1.000e-06
Threshold for strong local MOs           ... 9.500e-01
Threshold for bond MOs                   ... 8.500e-01
Operator                                 ... 0
Orbital range for localization           ... 1 to 4
Localization criterion                   ... FOSTER-BOYS (AUGMENTED HESSIAN)
Doing the dipole integrals     ... o.k.
Initial value of the localization sum :     0.000000
ITERATION   0 : L=    0.8886492259 DL=  8.89e-01 (AVERGE_DL)=    0.3848482874 
ITERATION   1 : L=    1.0033546549 DL=  1.15e-01 (AVERGE_DL)=    0.1382663065 
ITERATION   2 : L=    1.0105161131 DL=  7.16e-03 (AVERGE_DL)=    0.0345481745 
ITERATION   3 : L=    1.0109620793 DL=  4.46e-04 (AVERGE_DL)=    0.0086213519 
ITERATION   4 : L=    1.0109903291 DL=  2.82e-05 (AVERGE_DL)=    0.0021698607 
ITERATION   5 : L=    1.0109920106 DL=  1.68e-06 (AVERGE_DL)=    0.0005293905 
ITERATION   6 : L=    1.0109921483 DL=  1.38e-07 (AVERGE_DL)=    0.0001514509 
LOCALIZATION SUM CONVERGED

------------------------------------------------------
AUGMENTED HESSIAN OPTIMIZATION OF FOSTER-BOYS ORBITALS
------------------------------------------------------

Spin operator:           0
Orbital window:          1 to 4
Number of iterations:    128
Gradient tolerance:      1.000e-06
Number of pairs:         6
Davidson threshold:      2000
Diagonalization method:  LAPACK
Iter:    0   L: 1.0109921483   Grad. norm: 2.199139e-04
   *** Detected a saddle point. ***
       Augmented Hessian eigenvalues:  2.91e-04  4.95e-06 -1.30e-05 -8.27e-04 ... 
Iter:    1   L: 1.0110081533   Grad. norm: 7.916911e-03
Iter:    2   L: 1.0110212006   Grad. norm: 2.030511e-04
Iter:    3   L: 1.0110215098   Grad. norm: 6.035121e-05
   *** Likely close to a maximum now. ***
       Augmented Hessian eigenvalues:  2.71e-09  4.07e-10 -5.26e-04 -5.31e-04 ... 
Iter:    4   L: 1.0110215112   Grad. norm: 1.563166e-07
LOCALIZATION HAS CONVERGED.

Eigenvalues of the Hessian:
  0  1.826e-14
  1 -5.261e-04
  2 -5.261e-04
  3 -2.633e+00
  4 -2.633e+00
  5 -2.824e+00


--------------------------------------------------------------------------------
                    LOCALIZED MOLECULAR ORBITAL COMPOSITIONS
--------------------------------------------------------------------------------

The Mulliken populations for each LMO on each atom are computed
The LMO`s will be ordered according to atom index and type
  (A) Strongly localized MO`s have populations of >=0.950 on one atom
  (B) Two center bond orbitals have populations of >=0.850 on two atoms
  (C) Other MO`s are considered to be `delocalized`

FOUND  -   4 strongly local MO`s
       -   0 two center bond MO`s
       -   0 significantly delocalized MO`s

Rather strongly localized orbitals:
MO   4:   0F  -   1.000000
MO   3:   0F  -   1.000000
MO   2:   0F  -   1.000000
MO   1:   0F  -   1.000000
Localized MO's were stored in: /home/ubuntu/Shiwei/qm9_reaction_eng/qm9_orca_work/qm9_orca_work_elem/f/f_ccsdt_631+gss.loc
------------------------------------------------------------------------------
                           ORCA ORBITAL LOCALIZATION
------------------------------------------------------------------------------

Input orbitals are from                  ... /home/ubuntu/Shiwei/qm9_reaction_eng/qm9_orca_work/qm9_orca_work_elem/f/f_ccsdt_631+gss.loc
Output orbitals are to                   ... /home/ubuntu/Shiwei/qm9_reaction_eng/qm9_orca_work/qm9_orca_work_elem/f/f_ccsdt_631+gss.loc
Max. number of iterations                ... 128
Localizations seeded randomly            ... on
Convergence tolerance                    ... 1.000e-06
Threshold for strong local MOs           ... 9.500e-01
Threshold for bond MOs                   ... 8.500e-01
Operator                                 ... 1
Orbital range for localization           ... 1 to 3
Localization criterion                   ... FOSTER-BOYS (AUGMENTED HESSIAN)
Doing the dipole integrals     ... o.k.
Initial value of the localization sum :     0.000000
ITERATION   0 : L=    0.9083085782 DL=  9.08e-01 (AVERGE_DL)=    0.5502449692 
ITERATION   1 : L=    0.9679163287 DL=  5.96e-02 (AVERGE_DL)=    0.1409583277 
ITERATION   2 : L=    0.9688476998 DL=  9.31e-04 (AVERGE_DL)=    0.0176197910 
ITERATION   3 : L=    0.9688622525 DL=  1.46e-05 (AVERGE_DL)=    0.0022024739 
ITERATION   4 : L=    0.9688624799 DL=  2.27e-07 (AVERGE_DL)=    0.0002753092 
LOCALIZATION SUM CONVERGED

------------------------------------------------------
AUGMENTED HESSIAN OPTIMIZATION OF FOSTER-BOYS ORBITALS
------------------------------------------------------

Spin operator:           1
Orbital window:          1 to 3
Number of iterations:    128
Gradient tolerance:      1.000e-06
Number of pairs:         3
Davidson threshold:      2000
Diagonalization method:  LAPACK
Iter:    0   L: 0.9688624799   Grad. norm: 1.672632e-04
   *** Likely close to a maximum now. ***
       Augmented Hessian eigenvalues:  7.22e-09  1.80e-09 -3.88e+00 -3.88e+00
Iter:    1   L: 0.9688624835   Grad. norm: 7.654366e-09
LOCALIZATION HAS CONVERGED.

Eigenvalues of the Hessian:
  0  8.687e-15
  1 -3.875e+00
  2 -3.875e+00


--------------------------------------------------------------------------------
                    LOCALIZED MOLECULAR ORBITAL COMPOSITIONS
--------------------------------------------------------------------------------

The Mulliken populations for each LMO on each atom are computed
The LMO`s will be ordered according to atom index and type
  (A) Strongly localized MO`s have populations of >=0.950 on one atom
  (B) Two center bond orbitals have populations of >=0.850 on two atoms
  (C) Other MO`s are considered to be `delocalized`

FOUND  -   3 strongly local MO`s
       -   0 two center bond MO`s
       -   0 significantly delocalized MO`s

Rather strongly localized orbitals:
MO   3:   0F  -   1.000000
MO   2:   0F  -   1.000000
MO   1:   0F  -   1.000000
Localized MO's were stored in: /home/ubuntu/Shiwei/qm9_reaction_eng/qm9_orca_work/qm9_orca_work_elem/f/f_ccsdt_631+gss.loc
Warning: The program was called with UseRHFInts=true. This is deprecated now and will be ignored - sorry!
         your calculation will be ok, but may produce a slightly different result from earlier ORCA versions
Warning: The code was about to set UseRHFInts to true, but this feature is now deprecated


--------------------------------------------------------------------------------
                             ORCA-MATRIX DRIVEN CI
--------------------------------------------------------------------------------


Wavefunction type
-----------------
Correlation treatment                      ...      CCSD     
Single excitations                         ... ON
Orbital optimization                       ... OFF
Calculation of Z vector                    ... OFF
Calculation of Brueckner orbitals          ... OFF
Perturbative triple excitations            ... ON
Calculation of F12 correction              ... OFF
Frozen core treatment                      ... chemical core (2 el)
Reference Wavefunction                     ... UHF
  Alpha-MOs occ    :     1 ...    4 (  4 MO's/  4 electrons)
  Beta-MOs occ     :     1 ...    3 (  3 MO's/  3 electrons)
  Alpha-MOs virt   :     5 ...   17 ( 13 MO's              )
  Beta-MOs virt    :     4 ...   17 ( 14 MO's              )
  Quasi restricted orbitals will be used (this is similar to a ROHF determinant)
Number of AO's                             ...     18
Number of electrons                        ...      9
Number of correlated electrons             ...      7

Algorithmic settings
--------------------
Integral transformation                    ... All integrals via the RI transformation
K(C) Formation                             ... RI-DLPNO
   PNO-Integral Storage                    ... ON DISK
   PNO occupation number cut-off           ... 3.330e-07
   Singles PNO occupation number cut-off   ... 9.990e-09
   PNO Mulliken prescreening cut-off       ... 1.000e-03
   Domain cut-off (Mulliken population)    ... 1.000e-03
   PNO Normalization                       ...    1
Maximum number of iterations               ...        50
Convergence tolerance (max. residuum)      ... 2.500e-05
Level shift for amplitude update           ... 2.000e-01
Maximum number of DIIS vectors             ...         7
DIIS turned on at iteration                ...         0
Damping before turning on DIIS             ...     0.500
Damping after turning on DIIS              ...     0.000
Pair specific amplitude update             ... OFF
Natural orbital iterations                 ... OFF
Perturbative natural orbital generation    ... OFF
Printlevel                                 ... 4

Singles Fock matrix elements calculated using PNOs.

Memory handling:
----------------
Maximum memory for working arrays          ...   8000 MB
Data storage in matrix containers          ... UNCOMPRESSED
Data type for integral storage             ... DOUBLE
In-Core Storage of quantities:
   Amplitudes+Sigma Vector      ... NO
   J+K operators                ... NO
   DIIS vectors                 ... NO
   3-external integrals         ... NO
   4-external integrals         ... NO


Initializing the integral package          ... done
Localizing the valence QROs
------------------------------------------------------------------------------
                           ORCA ORBITAL LOCALIZATION
------------------------------------------------------------------------------

Input orbitals are from                  ... /home/ubuntu/Shiwei/qm9_reaction_eng/qm9_orca_work/qm9_orca_work_elem/f/f_ccsdt_631+gss.qro
Output orbitals are to                   ... /home/ubuntu/Shiwei/qm9_reaction_eng/qm9_orca_work/qm9_orca_work_elem/f/f_ccsdt_631+gss.loc
Max. number of iterations                ... 128
Localizations seeded randomly            ... off
Convergence tolerance                    ... 1.000e-06
Using relative localization threshhold   ... 1.000e-08
Threshold for strong local MOs           ... 9.500e-01
Threshold for bond MOs                   ... 8.500e-01
Operator                                 ... 0
Orbital range for localization           ... 1 to 3
Localization criterion                   ... FOSTER-BOYS (AUGMENTED HESSIAN)
Doing the dipole integrals     ... o.k.
Initial value of the localization sum :     0.000000
ITERATION   0 : L=    0.8700541249 DL=  8.70e-01 (AVERGE_DL)=    0.5385332317 
ITERATION   1 : L=    0.9271514269 DL=  5.71e-02 (AVERGE_DL)=    0.1379580878 
ITERATION   2 : L=    0.9280435722 DL=  8.92e-04 (AVERGE_DL)=    0.0172447610 
ITERATION   3 : L=    0.9280575120 DL=  1.39e-05 (AVERGE_DL)=    0.0021555951 
ITERATION   4 : L=    0.9280577298 DL=  2.18e-07 (AVERGE_DL)=    0.0002694494 
LOCALIZATION SUM CONVERGED

------------------------------------------------------
AUGMENTED HESSIAN OPTIMIZATION OF FOSTER-BOYS ORBITALS
------------------------------------------------------

Spin operator:           0
Orbital window:          1 to 3
Number of iterations:    128
Gradient tolerance:      1.000e-06
Number of pairs:         3
Davidson threshold:      2000
Diagonalization method:  LAPACK
Iter:    0   L: 0.9280577298   Grad. norm: 1.602187e-04
   *** Likely close to a maximum now. ***
       Augmented Hessian eigenvalues:  6.91e-09  1.73e-09 -3.71e+00 -3.71e+00
Iter:    1   L: 0.9280577332   Grad. norm: 7.331994e-09
LOCALIZATION HAS CONVERGED.

Eigenvalues of the Hessian:
  0  1.086e-14
  1 -3.712e+00
  2 -3.712e+00


--------------------------------------------------------------------------------
                    LOCALIZED MOLECULAR ORBITAL COMPOSITIONS
--------------------------------------------------------------------------------

The Mulliken populations for each LMO on each atom are computed
The LMO`s will be ordered according to atom index and type
  (A) Strongly localized MO`s have populations of >=0.950 on one atom
  (B) Two center bond orbitals have populations of >=0.850 on two atoms
  (C) Other MO`s are considered to be `delocalized`

FOUND  -   3 strongly local MO`s
       -   0 two center bond MO`s
       -   0 significantly delocalized MO`s

Rather strongly localized orbitals:
MO   3:   0F  -   1.000000
MO   2:   0F  -   1.000000
MO   1:   0F  -   1.000000
Localized MO's were stored in: /home/ubuntu/Shiwei/qm9_reaction_eng/qm9_orca_work/qm9_orca_work_elem/f/f_ccsdt_631+gss.loc

------------------------------------------------------------------------------
                           ORCA ORBITAL LOCALIZATION
------------------------------------------------------------------------------

Input orbitals are from                  ... /home/ubuntu/Shiwei/qm9_reaction_eng/qm9_orca_work/qm9_orca_work_elem/f/f_ccsdt_631+gss.loc
Output orbitals are to                   ... /home/ubuntu/Shiwei/qm9_reaction_eng/qm9_orca_work/qm9_orca_work_elem/f/f_ccsdt_631+gss.loc
Max. number of iterations                ... 128
Localizations seeded randomly            ... off
Convergence tolerance                    ... 1.000e-06
Using relative localization threshhold   ... 1.000e-08
Threshold for strong local MOs           ... 9.500e-01
Threshold for bond MOs                   ... 8.500e-01
Operator                                 ... 0
Orbital range for localization           ... 4 to 4
Localization criterion                   ... FOSTER-BOYS (AUGMENTED HESSIAN)
Doing the dipole integrals     ... o.k.

ORCA_LOC: ONLY ONE ORBITAL - SKIPPING LOCALIZATION


--------------------------------------------------------------------------------
                    LOCALIZED MOLECULAR ORBITAL COMPOSITIONS
--------------------------------------------------------------------------------

The Mulliken populations for each LMO on each atom are computed
The LMO`s will be ordered according to atom index and type
  (A) Strongly localized MO`s have populations of >=0.950 on one atom
  (B) Two center bond orbitals have populations of >=0.850 on two atoms
  (C) Other MO`s are considered to be `delocalized`

FOUND  -   1 strongly local MO`s
       -   0 two center bond MO`s
       -   0 significantly delocalized MO`s

Rather strongly localized orbitals:
MO   4:   0F  -   1.000000
Localized MO's were stored in: /home/ubuntu/Shiwei/qm9_reaction_eng/qm9_orca_work/qm9_orca_work_elem/f/f_ccsdt_631+gss.loc

Localizing the core orbitals
------------------------------------------------------------------------------
                           ORCA ORBITAL LOCALIZATION
------------------------------------------------------------------------------

Input orbitals are from                  ... /home/ubuntu/Shiwei/qm9_reaction_eng/qm9_orca_work/qm9_orca_work_elem/f/f_ccsdt_631+gss.loc
Output orbitals are to                   ... /home/ubuntu/Shiwei/qm9_reaction_eng/qm9_orca_work/qm9_orca_work_elem/f/f_ccsdt_631+gss.loc
Max. number of iterations                ... 128
Localizations seeded randomly            ... off
Convergence tolerance                    ... 1.000e-06
Using relative localization threshhold   ... 1.000e-08
Threshold for strong local MOs           ... 9.500e-01
Threshold for bond MOs                   ... 8.500e-01
Operator                                 ... 0
Orbital range for localization           ... 0 to 0
Localization criterion                   ... FOSTER-BOYS (AUGMENTED HESSIAN)
Doing the dipole integrals     ... o.k.

ORCA_LOC: ONLY ONE ORBITAL - SKIPPING LOCALIZATION


--------------------------------------------------------------------------------
                    LOCALIZED MOLECULAR ORBITAL COMPOSITIONS
--------------------------------------------------------------------------------

The Mulliken populations for each LMO on each atom are computed
The LMO`s will be ordered according to atom index and type
  (A) Strongly localized MO`s have populations of >=0.950 on one atom
  (B) Two center bond orbitals have populations of >=0.850 on two atoms
  (C) Other MO`s are considered to be `delocalized`

FOUND  -   1 strongly local MO`s
       -   0 two center bond MO`s
       -   0 significantly delocalized MO`s

Rather strongly localized orbitals:
MO   0:   0F  -   1.000000
Localized MO's were stored in: /home/ubuntu/Shiwei/qm9_reaction_eng/qm9_orca_work/qm9_orca_work_elem/f/f_ccsdt_631+gss.loc

Re-Reading QRO orbitals for the actual calculation
  ... duplicating orbitals and energies 
  ... adjusting occupation numbers
Warning: reference  - re-canonicalizations have been set to INT 1 VIRT 1
Warning: internal orbitals are localized - no re-canonicalization of internal orbitals
Warning: UsePNO is turned on - no re-canonicalization of internal and virtual orbitals
Fock densities were made 

--------------
DLPNO SETTINGS
--------------

TCutMKN:           1.000e-03
TCutPAO:           1.000e-03
TCutPNO:           3.330e-07
TCutPNOSingles:    9.990e-09
TCutPAOExt:        1.000e-01
TCutPairs:         1.000e-06
TCutPre:           1.000e-08
TCutDOij:          1.000e-05
PAO overlap thresh 1.000e-08
Number of singly-occupied orbitals: 1
TCutTNO:           1.000e-09
TCutMP2Pairs:      1.000e-07
TCutDOStrong:      2.000e-02
TCutDOWeak:        4.000e-02
TCutMKNStrong:     1.000e-02
TCutMKNWeak:       1.000e-01
NTCutTNO:          1
Using PNOs for Singles Fock computation
--------------------------
Dim 18, Dim + NT + NS 19
Constructing RI-JK Fock for ROHF like references using UHF and RHF codes!

--------------------------
UNRESTRICTED FOCK OPERATOR
--------------------------


--------------------------
CLOSED-SHELL FOCK OPERATOR
--------------------------

Calculating differential overlap integrals (occ,PAO) ... ok
 >> Construction of the PNO with the Koopmans (K)-matrix << 
Entering the RI transformation section

-----------------
RI-TRANSFORMATION (AUX index driven)
-----------------

Dimension of the orbital-basis         ... 18
Dimension of the aux-basis             ... 48
Transformation of internal MOs         ...    4-   4
Number Format for Storage              ... Double (8 Byte)
Integral mode                          ... Direct

First Phase: integral generation and transformation of MO indices
  Aux angular momentum 0               ... done (    0.000 sec)
  Aux angular momentum 1               ... done (    0.000 sec)
  Aux angular momentum 2               ... done (    0.000 sec)
  Aux angular momentum 3               ... done (    0.000 sec)
Closing buffer VIJ ( 0.00 GB; CompressionRatio= 0.40)
  Phase 1 completed in     0.027 sec
Second Phase: sorting and transformation of aux index

IJ-Transformation
Memory available                       ... 8000 MB 
Max. # MO pairs treated in a batch     ... 1    
# of internal orbitals                 ... 1
# batches for internal orbitals        ... 1
Closing buffer IJV ( 0.00 GB; CompressionRatio= 0.97)
(ij|v) transformation done in     0.000 sec

  Phase 2 completed in     0.000 sec
RI-Integral transformation completed in     0.027 sec

-----------------------
RI-FORMATION OF (ij|kl)
-----------------------

Max core memory to be used            ... 8000 MB
Memory needed per MO pair             ...   0.0 MB
# of MO pairs included in trafo       ... 1
# of MO pairs treated in a batch      ... 1
# of batches needed                   ... 1
Data format used                      ... DOUBLE
 done (    0.000 sec)
Closing buffer JIJ ( 0.00 GB; CompressionRatio= 0.40)
(ij|kl) transformation completed in     0.000 sec
     ... leaving the RI transformation section
 >> 4-active ERIs are generated & stored in-core fast memory 
 >> End construction..
F12 correction will NOT be calculated
 >>>>>>>>>>>>>>>>>>>>>>>>>>>>>>>>>>>>> 
       Dipole-based Prescreening       
 <<<<<<<<<<<<<<<<<<<<<<<<<<<<<<<<<<<<< 
Threshold for domain construction in prescreening:
   TCutDO    ...     1.0e-02
--------------------------
ELECTRON PAIR PRESCREENING
--------------------------

done (average of    0 OSVs/MO)
PAO based multipole pair screening          .... used
   TCutDOij = 1.000000e-05
   TCutPre  = 1.000000e-08
 done

sum of pair energies estimated for screened out pairs ...       0.000000000000 Eh
Timings for the prescreening procedure:
  Maps                          ...        0.000 sec
  nonredundant PAO construction ...        0.000 sec
  Dipole prescreening           ...        0.000 sec
  Total:                        ...        0.000 sec
                                                           
  __   __        __   ___     __        ___  __   __       
 /  ` |__) |  | |  \ |__     / _` |  | |__  /__` /__`     
 \__, |  \ \__/ |__/ |___    \__> \__/ |___ .__/ .__/ 
                                                           

Parameters for the crude guess:
   TScaleDOMP2PreScr   : 2.000e+00
   TScaleMKNMP2PreScr  : 1.000e+01
   TScalePNOMP2PreScr  : 1.000e+00
   TScalePairsMP2PreScr: 1.000e+00
   PAO overlap thresh    1.000e-08
Thresholds for map construction and integral transformation for crude MP2:
   TCutMKN                    ...     1.0e-02
   TCutDO                     ...     2.0e-02
   TCutPairs                  ...     1.0e-06
   TCutPairs_CrudeMP2         ...     1.0e-06
   TCutPNO_CrudeMP2           ...     3.3e-07
   TCutPNOSingles_CrudeMP2    ...     1.0e-08

CRUDE: Average # of AOs per PAO                   ...    18.0
CRUDE: Average # of atoms per PAO                 ...     1.0
CRUDE: Average # of atoms per a pair domain       ...    1.00
CRUDE: Average # of atoms per AUX domain          ...    1.00
CRUDE: Average # of atoms per a pair AUX domain   ...    1.00

 * Extended Maps .. 
CRUDE: Average # of PAOs (Atoms) per Occ          ...     1.0
CRUDE: Average # of PAOs (AOs) per Occ            ...    19.0

 * Trafo Maps .. 
CRUDE: Average # of PAOs (Atoms) per Occ (Trafo)  ...     1.0
CRUDE: Average # of PAOs (AOs) per Occ (Trafo)    ...    19.0
CRUDE: Average # of AUX (Atoms) per Occ (Trafo)   ...     1.0
CRUDE: Average # of AUX (AOs) per Occ (Trafo)     ...    48.0

ok
Calling local trafo                  ...--------------------------------
LOCAL RI TRANSFORMATION (IAVPAO)
--------------------------------

Orbital window:       1 to 4
Number of PAOs:      19
Basis functions:     18 (8 shells)
Aux. functions:      48 (16 shells)
Use SHARK:           on
Have SHARK:         yes

Processing maps (0.0 sec)
Average map sizes:
   Aux shells -> MOs               4.0
   Aux shells -> PAOs             19.0
   MOs        -> AO shells         8.0
   PAOs       -> AO shells         8.0

Calculating integrals (0.0 sec, 0.028 MB)
Sorting integrals (0.0 sec, 0.028 MB)
Total time for the integral transformation: 0.0 sec
ok (   0.0 sec)

-----------------------------------------
   _  _______   __    ___  _  ______     
  / |/ / __/ | / /___/ _ \/ |/ / __ \  
 /    / _/ | |/ /___/ ___/    / /_/ /    
/_/|_/___/ |___/   /_/  /_/|_/\____/    
                                         
                for open-shell molecules 
-----------------------------------------


 ==> UMP guess in NEV-PNO space 

Truncation parameters                       .... 
    PAOOverlapThresh     =        1.000e-08
Pair selection                          .... not used
    TCutPairs            =        1.000e-06
    TCutMKN              =        1.000e-02
    TCutDO               =        1.000e-02
    TCutCMO              =        1.000e-03
    TCutCPAO             =        1.000e-03
    TCutPNO              =        3.330e-07
    TScaleTCutPNO_SS     =        1.000e+00
    TScaleTCutPNO_SD     =        1.000e+00
    TScalePNO_Core       =        1.000e-02
    TCutDO_Crude         =        2.000e-02
    TCutMKN_Crude        =        1.000e-02
    TCutPairs_Crude      =        1.000e-06
    TCutPNO_Crude        =        3.330e-07
    TCutCMO              =        1.000e-03
    TCutCPAO             =        1.000e-03
Spin component scaling in ijab excitation            .... not used

Average number of atoms per AUX Domain:
   Single domains:    1.00
   Pair domains:      1.00
Average number of atoms per PAO Domain:
   Single domains:    1.00
   Pair domains:      1.00
Formation of guess energy and open-shell PNO.

NEV-PNO operators..
  E(ij->ab)
  E(ip->ab)
  E(pq->ra)
  E(ip->qr)
  E(ip->aq) and E(ip->qa)

 Norm of Semi-Internal Fock Operators ...   0.0000201209
  ==> Semi-internal excitations detected 

   .... Finished loop over pairs

                       ===========================
                         13 OF   13 PAIRS ARE KEPT CC PAIRS
                          0 OF   13 PAIRS ARE KEPT PT2 PAIRS
                          0 OF   13 PAIRS ARE SKIPPED
                       ===========================

 Initial PAO correlation energy (all pairs)    ...  -0.1276404700 Eh
 Energy constituents in PAO basis (Eh):
  | Vijab(+0) ...  -0.0800471927
  | Viab (-1) ...  -0.0304468643
  | Va   (-1) ...  -0.0000046168
  | Vija (+1) ...  -0.0086077757
  | Via  (+0) ...  -0.0085340205
 Initial PNO correlation energy                ...  -0.1268723397 Eh
 Energy constituents in PNO basis (Eh):
  | Vijab(+0) ...  -0.0800460975 (err=  0.0000010952)
  | Viab (-1) ...  -0.0296783624 (err=  0.0007685019)
  | Va   (-1) ...  -0.0000046168 (err=  0.0000000000)
  | Vija (+1) ...  -0.0086092425 (err= -0.0000014669)
  | Via  (+0) ...  -0.0085340205 (err=  0.0000000000)
 Sum of total truncation errors ...   0.0007681303 Eh
  | Pair screening ...   0.0000000000 Eh
  | PNO truncation ...   0.0007681303 Eh

 UMP2 correlation energy (PAO) ...  -0.1238943298
  | alpha-alpha ...  -0.0215656809 (NP_aa=    6)
  | alpha-beta  ...  -0.0916690098 (NP_ab=   12)
  | beta -beta  ...  -0.0106596391 (NP_bb=    3)
 UMP2 correlation energy (PNO) ...  -0.1230739677
  | alpha-alpha ...  -0.0210516752 (err=  0.0005140057, NP_aa=    6)
  | alpha-beta  ...  -0.0913620705 (err=  0.0003069393, NP_ab=   12)
  | beta -beta  ...  -0.0106602220 (err= -0.0000005829, NP_bb=    3)
 Sum of total UMP2 truncation errors ...   0.0008203621 Eh
  | Pair screening ...   0.0000000000 Eh
  | PNO truncation ...   0.0008203621 Eh
 Timing for NEV-PNO construction (sec.)
  | Intermediate construction  ..            0.000
  | Amplitude construction     ..            0.000
  | Total time                 ..            0.000
 Making pair pair interaction lists ...      
Pair pair interaction statistics
Nr. of pairs:                        13
Nr. of Singles:                       4
Average (per pair domain)               (Total):
Atoms:                              1.0 (1)
PNOs:                              12.6
PAOs:                   19.0 (19)
Aux functions:                     48.0 (48)
AuxAtoms:                           1.0 (1)
EXT1 basis functions:              19.0 (19)
Interacting Pairs:                 13.0 (13)
Interacting Pairs - Singles:        4.0 (4)
Average (per Single domain):
Atoms (Singles):                    1.0 (1)
PNOs (Singles):                    14.0
Basis functions (Singles):         19.0 (19)
Interacting Singles - Singles:      4.0 (4)
Interacting Singles - Pairs:       13.0 (13)
ok
                                                 
  ___         ___     __        ___  __   __     
 |__  | |\ | |__     / _` |  | |__  /__` /__`   
 |    | | \| |___    \__> \__/ |___ .__/ .__/ 
                                                 

Thresholds for map construction and integral transformation:
   TCutMKN   ...     1.0e-03
   TCutDO    ...     1.0e-02
   TCutCMO   ...     1.0e-03
   TCutCPAO  ...     1.0e-03

Thresholds for map construction and integral transformation for strong Triples:
   TCutMKN   ...     1.0e-02
   TCutDO    ...     2.0e-02
   TCutCMO   ...     1.0e-03
   TCutCPAO  ...     1.0e-03

Thresholds for map construction and integral transformation for weak Triples:
   TCutMKN   ...     1.0e-01
   TCutDO    ...     4.0e-02
   TCutCMO   ...     1.0e-03
   TCutCPAO  ...     1.0e-03

N(Atoms)=    1  N(Basis)=  18 N(Aux)=  48
MO to PAO maps        N(elements)=    4  Average functions=  19.0 shells=   8.0 atoms=   1.0
MO to AO maps         N(elements)=    4  Average functions=  18.0 shells=   8.0 atoms=   1.0
PAO to AO maps        N(elements)=   19  Average functions=  18.0 shells=   8.0 atoms=   1.0
MO to AUX maps        N(elements)=    4  Average functions=  48.0 shells=  16.0 atoms=   1.0
After extension:
Ext. MO to PAO maps   N(elements)=    4  Average functions=  19.0 shells=   8.0 atoms=   1.0
Ext. MO to AUX maps   N(elements)=    4  Average functions=  48.0 shells=  16.0 atoms=   1.0
--------------------------------
LOCAL RI TRANSFORMATION (IAVPAO)
--------------------------------

Orbital window:       1 to 4
Number of PAOs:      19
Basis functions:     18 (8 shells)
Aux. functions:      48 (16 shells)
Use SHARK:           on
Have SHARK:         yes

Processing maps (0.0 sec)
Average map sizes:
   Aux shells -> MOs               4.0
   Aux shells -> PAOs             19.0
   MOs        -> AO shells         8.0
   PAOs       -> AO shells         8.0

Calculating integrals (0.0 sec, 0.028 MB)
Sorting integrals (0.0 sec, 0.028 MB)
Total time for the integral transformation: 0.0 sec

 ==> UMP guess in NEV-PNO space 

Truncation parameters                       .... 
    PAOOverlapThresh     =        1.000e-08
Pair selection                          .... not used
    TCutPairs            =        1.000e-06
    TCutMKN              =        1.000e-03
    TCutDO               =        1.000e-02
    TCutCMO              =        1.000e-03
    TCutCPAO             =        1.000e-03
    TCutPNO              =        3.330e-07
    TScaleTCutPNO_SS     =        1.000e+00
    TScaleTCutPNO_SD     =        1.000e+00
    TScalePNO_Core       =        1.000e-02
    TScaleTCutPairs_Somo =        3.300e-01
    TScaleTCutPairs_Core =        1.000e+00
    TCutPairs_MP2        =        1.000e-07
    TCutCMO              =        1.000e-03
    TCutCPAO             =        1.000e-03
Spin component scaling in ijab excitation            .... not used

Average number of atoms per AUX Domain:
   Single domains:    1.00
   Pair domains:      1.00
Average number of atoms per PAO Domain:
   Single domains:    1.00
   Pair domains:      1.00
Formation of guess energy and open-shell PNO.

NEV-PNO operators..
  E(ij->ab)
  E(ip->ab)
  E(pq->ra)
  E(ip->qr)
  E(ip->aq) and E(ip->qa)

   .... Finished loop over pairs

  - Occupation number analysis for DOUBLES-pairs:

   Orbital Indices     % trace(D) 
  -----------------------------------
  (    1,     1): 100.000000000000 % (IJ)
  (    2,     1):  99.999025353741 % (IJ)
  (    2,     2): 100.000000000000 % (IJ)
  (    3,     1):  99.999025353741 % (IJ)
  (    3,     2):  99.999025353819 % (IJ)
  (    3,     3): 100.000000000000 % (IJ)
  (    4,     1): 100.000000000000 % (IP)
  (    4,     2): 100.000000000000 % (IP)
  (    4,     3): 100.000000000000 % (IP)
  (    4,     4): 100.000000000000 % (PQ)

  - Occupation number analysis for SINGLES-pairs:

   Orbital Index       % trace(D) 
  -----------------------------------
  (    1): 100.000000000000 % (IJ)
  (    2): 100.000000000000 % (IJ)
  (    3): 100.000000000000 % (IJ)
  (    4): 100.000000000000 % (IJ)

 PNO Occupation Number Statistics: 
  | Av. % of trace(Dij) retained        ...  99.999512676883
  | Av. % of trace(Dip) retained        ... 100.000000000000
  | Av. % of trace(Dpq) retained        ... 100.000000000000
  | sigma^2 in % of trace(Dij) retained ...   2.37e-07
  | sigma^2 in % of trace(Dip) retained ...   4.04e-28
  | sigma^2 in % of trace(Dpq) retained ...   0.00e+00
  | Av. % of trace(Di) retained         ... 100.000000000000
  | Av. % of trace(Dp) retained         ... 100.000000000000
  | sigma^2 in % of trace(Di) retained  ...   1.35e-28
  | sigma^2 in % of trace(Dp) retained  ...   0.00e+00
 Distributions of % trace(Dij) recovered:
  |       >= 99.9  ...     6 (100.0 % of all IJ-pairs)
 Distributions of % trace(Dip) recovered:
  |       >= 99.9  ...     3 (100.0 % of all IP-pairs)
 Distributions of % trace(Dpq) recovered:
  |       >= 99.9  ...     1 (100.0 % of all PQ-pairs)
 Distributions of % trace(Di) recovered :
  |       >= 99.9  ...     3 (100.0 % of all I-pairs )
 Distributions of % trace(Dp) recovered :
  |       >= 99.9  ...     1 (100.0 % of all P-pairs )

                       ===========================
                         13 OF   13 PAIRS ARE KEPT
                       ===========================

 Initial PAO correlation energy (all pairs)    ...  -0.1276404700 Eh
 Energy constituents in PAO basis (Eh):
  | Vijab(+0) ...  -0.0800471927
  | Viab (-1) ...  -0.0304468643
  | Va   (-1) ...  -0.0000046168
  | Vija (+1) ...  -0.0086077757
  | Via  (+0) ...  -0.0085340205
 Initial PNO correlation energy                ...  -0.1268723397 Eh
 Energy constituents in PNO basis (Eh):
  | Vijab(+0) ...  -0.0800460975 (err=  0.0000010952)
  | Viab (-1) ...  -0.0296783624 (err=  0.0007685019)
  | Va   (-1) ...  -0.0000046168 (err=  0.0000000000)
  | Vija (+1) ...  -0.0086092425 (err= -0.0000014669)
  | Via  (+0) ...  -0.0085340205 (err=  0.0000000000)
 Sum of total truncation errors ...   0.0007681303 Eh
  | Pair screening ...   0.0000000000 Eh
  | PNO truncation ...   0.0007681303 Eh

 UMP2 correlation energy (PAO) ...  -0.1238943298
  | alpha-alpha ...  -0.0215656809 (NP_aa=    6)
  | alpha-beta  ...  -0.0916690098 (NP_ab=   12)
  | beta -beta  ...  -0.0106596391 (NP_bb=    3)
 UMP2 correlation energy (PNO) ...  -0.1230739677
  | alpha-alpha ...  -0.0210516752 (err=  0.0005140057, NP_aa=    6)
  | alpha-beta  ...  -0.0913620705 (err=  0.0003069393, NP_ab=   12)
  | beta -beta  ...  -0.0106602220 (err= -0.0000005829, NP_bb=    3)
 Sum of total UMP2 truncation errors ...   0.0008203621 Eh
  | Pair screening ...   0.0000000000 Eh
  | PNO truncation ...   0.0008203621 Eh
 Timing for NEV-PNO construction (sec.)
  | Intermediate construction  ..            0.000
  | Amplitude construction     ..            0.000
  | Total time                 ..            0.000
 Making pair pair interaction lists ...      
Pair pair interaction statistics
Nr. of pairs:                        13
Nr. of Singles:                       4
Average (per pair domain)               (Total):
Atoms:                              1.0 (1)
PNOs:                              12.6
PAOs:                   19.0 (19)
Aux functions:                     48.0 (48)
AuxAtoms:                           1.0 (1)
EXT1 basis functions:              19.0 (19)
Interacting Pairs:                 13.0 (13)
Interacting Pairs - Singles:        4.0 (4)
Average (per Single domain):
Atoms (Singles):                    1.0 (1)
PNOs (Singles):                    14.0
Basis functions (Singles):         19.0 (19)
Interacting Singles - Singles:      4.0 (4)
Interacting Singles - Pairs:       13.0 (13)
ok
 Total size for 2-ext PNO integrals ...      0.0 MB
Checking the number of SOMO/SOMO doubles PNOs ...  No PNOs should be truncated!

--------------------------------
LOCAL RI TRANSFORMATION (VABPAO)
--------------------------------

Number of PAOs:      19
Basis functions:     18 (8 shells)
Aux. functions:      48 (16 shells)
Use SHARK:           on

Processing maps (0.0 sec)
Average map sizes:
   Aux shells -> PAOs             19.0
   PAOs       -> AO shells         8.0

Calculating integrals (0.0 sec, 0.133 MB)
Finished
ok (   0.0 sec)
-----------------------------
LOCAL RI TRANSFORMATION (IJV)
-----------------------------

Orbital window:       1 to 4
Basis functions:     18 (8 shells)
Aux. functions:      48 (16 shells)
Use SHARK:           on

Processing maps (0.0 sec)
Average map sizes:
   Aux shells -> MOs(i)            4.0
   Aux shells -> MOs(j)            4.0
   MOs        -> AO shells         8.0

Calculating integrals (0.0 sec, 0.006 MB)
Sorting integrals (0.0 sec, 0.006 MB)
Total time for the integral transformation: 0.0 sec
Start of DLPNO_MakePairInteractionInts_RHF_Direct


-------------------------------------
Pair Pair Term precalculation with     
RI-(ij|mn) and (im|jn) transformation  
ON THE FLY                             
-------------------------------------

Max core memory to be used                    ...   8000 MB
Number of batches needed                      ...      1 
Average Memory used per batch                 ...      0 MB
Pair Pair terms per batch                     ...      0 
Total number of pairs                         ...     13 
Memory needed for all IJPairs                 ...      0 MB
   IBatch   1 (of   1)              ... 
Ibatch:  1 (of  1)

number of pairs: 13 
Starting VAB
GOING DOWN TO notP:  0.0 P:  0.0
Starting VIM VJN
Starting VIJ
Done collecting 3-index integrals
done
done (    0.005 sec)
Total EXT                           ...           0.005 sec

Detailed timings: 
Reading/generating VMAT                    ...          0.000 sec
Reading 3-index integrals                  ...          0.000 sec
Reading 3-index IJ integrals               ...          0.000 sec
Reading 3-index IM integrals               ...          0.000 sec
Reading 3-index MN integrals               ...          0.000 sec
Reading 3-index PAO integrals              ...          0.000 sec
Sorting of data (for reading)              ...          0.001 sec
Sorting of data (for reading) - only PREP  ...          0.000 sec
Sorting of data (for reading) - only MN    ...          0.001 sec
Sorting of data (for reading) - only IM    ...          0.000 sec
Sorting of data (for reading) - only IJ    ...          0.000 sec
Sorting of data (for intermediates)        ...          0.000 sec
Sorting of data (for writing)              ...          0.000 sec
Get Pair1 ...          0.000 sec
Get Pair2 ...          0.000 sec
Get Pair3 ...          0.000 sec
Get Pair4 ...          0.000 sec
Get Pair5 ...          0.000 sec
Get Pair6 ...          0.000 sec
Orthogonalization of the 3-index integrals ...          0.001 sec
                                        mn ...          0.000 sec
                                        im ...          0.000 sec
                                        jn ...          0.000 sec
                                        ij ...          0.000 sec
Multipl. of 3-index integrals              ...          0.002 sec
                   - only MN PAO to PNO    ...          0.001 sec
                   - only IM/JN PAO to PNO ...          0.000 sec
                   - IM and JN to IMJN     ...          0.000 sec
                   - IJ and MN to IMJN     ...          0.000 sec
GetNewMat              ...          0.000 sec
Generating IJMN (orthog. + mult.)          ...          0.004 sec
Generating IJMN (orthog. + mult.) 1         ...          0.003 sec
Generating IJMN (orthog. + mult.) 2         ...          0.000 sec
Generating IJMN (orthog. + mult.) 3         ...          0.000 sec
Generating IJMN (orthog. + mult.) 4         ...          0.000 sec
Generating IMJN (orthog. + mult.)          ...          0.001 sec
Storing data in files                      ...          0.000 sec
VAB SUM                                    ...          0.003 sec
Sorting 1                                  ...          0.000 sec
Sorting 2                                  ...          0.000          0.000 sec
[...]
eaab 2 3 0     0.0000000000
eaab 2 3 1     0.0000000000
eaab 2 3 2     0.0000000000
eaab 2 3 3     0.0000000000
eaab 3 0 0    -0.0000996092
eaab 3 0 1    -0.0000442157
eaab 3 0 2    -0.0000442157
eaab 3 0 3     0.0000000000
eaab 3 1 0    -0.0000442157
eaab 3 1 1    -0.0000996092
eaab 3 1 2    -0.0000442157
eaab 3 1 3     0.0000000000
eaab 3 2 0    -0.0000442157
eaab 3 2 1    -0.0000442157
eaab 3 2 2    -0.0000996092
eaab 3 2 3     0.0000000000
eaab 3 3 0     0.0000000000
eaab 3 3 1     0.0000000000
eaab 3 3 2     0.0000000000
eaab 3 3 3     0.0000000000
eabb 0 0 0     0.0000000000
eabb 0 0 1     0.0000000000
eabb 0 0 2     0.0000000000
eabb 0 0 3     0.0000000000
eabb 0 1 0    -0.0000520085
eabb 0 1 1     0.0000000000
eabb 0 1 2     0.0000000000
eabb 0 1 3     0.0000000000
eabb 0 2 0    -0.0000520085
eabb 0 2 1    -0.0000254947
eabb 0 2 2     0.0000000000
eabb 0 2 3     0.0000000000
eabb 0 3 0     0.0000000000
eabb 0 3 1     0.0000000000
eabb 0 3 2     0.0000000000
eabb 0 3 3     0.0000000000
eabb 1 0 0     0.0000000000
eabb 1 0 1     0.0000000000
eabb 1 0 2     0.0000000000
eabb 1 0 3     0.0000000000
eabb 1 1 0    -0.0000520085
eabb 1 1 1     0.0000000000
eabb 1 1 2     0.0000000000
eabb 1 1 3     0.0000000000
eabb 1 2 0    -0.0000254947
eabb 1 2 1    -0.0000520085
eabb 1 2 2     0.0000000000
eabb 1 2 3     0.0000000000
eabb 1 3 0     0.0000000000
eabb 1 3 1     0.0000000000
eabb 1 3 2     0.0000000000
eabb 1 3 3     0.0000000000
eabb 2 0 0     0.0000000000
eabb 2 0 1     0.0000000000
eabb 2 0 2     0.0000000000
eabb 2 0 3     0.0000000000
eabb 2 1 0    -0.0000254947
eabb 2 1 1     0.0000000000
eabb 2 1 2     0.0000000000
eabb 2 1 3     0.0000000000
eabb 2 2 0    -0.0000520085
eabb 2 2 1    -0.0000520085
eabb 2 2 2     0.0000000000
eabb 2 2 3     0.0000000000
eabb 2 3 0     0.0000000000
eabb 2 3 1     0.0000000000
eabb 2 3 2     0.0000000000
eabb 2 3 3     0.0000000000
eabb 3 0 0     0.0000000000
eabb 3 0 1     0.0000000000
eabb 3 0 2     0.0000000000
eabb 3 0 3     0.0000000000
eabb 3 1 0    -0.0000374235
eabb 3 1 1     0.0000000000
eabb 3 1 2     0.0000000000
eabb 3 1 3     0.0000000000
eabb 3 2 0    -0.0000374235
eabb 3 2 1    -0.0000374235
eabb 3 2 2     0.0000000000
eabb 3 2 3     0.0000000000
eabb 3 3 0     0.0000000000
eabb 3 3 1     0.0000000000
eabb 3 3 2     0.0000000000
eabb 3 3 3     0.0000000000
ebbb 0 0 0     0.0000000000
ebbb 0 0 1     0.0000000000
ebbb 0 0 2     0.0000000000
ebbb 0 0 3     0.0000000000
ebbb 0 1 0     0.0000000000
ebbb 0 1 1     0.0000000000
ebbb 0 1 2     0.0000000000
ebbb 0 1 3     0.0000000000
ebbb 0 2 0     0.0000000000
ebbb 0 2 1     0.0000000000
ebbb 0 2 2     0.0000000000
ebbb 0 2 3     0.0000000000
ebbb 0 3 0     0.0000000000
ebbb 0 3 1     0.0000000000
ebbb 0 3 2     0.0000000000
ebbb 0 3 3     0.0000000000
ebbb 1 0 0     0.0000000000
ebbb 1 0 1     0.0000000000
ebbb 1 0 2     0.0000000000
ebbb 1 0 3     0.0000000000
ebbb 1 1 0     0.0000000000
ebbb 1 1 1     0.0000000000
ebbb 1 1 2     0.0000000000
ebbb 1 1 3     0.0000000000
ebbb 1 2 0     0.0000000000
ebbb 1 2 1     0.0000000000
ebbb 1 2 2     0.0000000000
ebbb 1 2 3     0.0000000000
ebbb 1 3 0     0.0000000000
ebbb 1 3 1     0.0000000000
ebbb 1 3 2     0.0000000000
ebbb 1 3 3     0.0000000000
ebbb 2 0 0     0.0000000000
ebbb 2 0 1     0.0000000000
ebbb 2 0 2     0.0000000000
ebbb 2 0 3     0.0000000000
ebbb 2 1 0    -0.0000045992
ebbb 2 1 1     0.0000000000
ebbb 2 1 2     0.0000000000
ebbb 2 1 3     0.0000000000
ebbb 2 2 0     0.0000000000
ebbb 2 2 1     0.0000000000
ebbb 2 2 2     0.0000000000
ebbb 2 2 3     0.0000000000
ebbb 2 3 0     0.0000000000
ebbb 2 3 1     0.0000000000
ebbb 2 3 2     0.0000000000
ebbb 2 3 3     0.0000000000
ebbb 3 0 0     0.0000000000
ebbb 3 0 1     0.0000000000
ebbb 3 0 2     0.0000000000
ebbb 3 0 3     0.0000000000
ebbb 3 1 0     0.0000000000
ebbb 3 1 1     0.0000000000
ebbb 3 1 2     0.0000000000
ebbb 3 1 3     0.0000000000
ebbb 3 2 0     0.0000000000
ebbb 3 2 1     0.0000000000
ebbb 3 2 2     0.0000000000
ebbb 3 2 3     0.0000000000
ebbb 3 3 0     0.0000000000
ebbb 3 3 1     0.0000000000
ebbb 3 3 2     0.0000000000
ebbb 3 3 3     0.0000000000
E_DDD  -0.000869027766
E_SDD  -0.000734475665
E_SSD   0.000000000000
E_SSS   0.000000000000

Triples timings:
Total time                      ...     0.006 sec

Triples List generation         ...     0.000 sec
TNO generation                  ...     0.002 sec
Pair density generation         ...     0.000 sec
Look up tables                  ...     0.000 sec
Generating 3-index integrals    ...     0.002 sec
Make 4-ind.int. from 3-ind.int  ...     0.000 sec
Projecting amplitudes (D + S)   ...     0.001 sec
Sorting integrals for spin cases...     0.000 sec
Calculate W0/W1                 ...     0.000 sec
T0 Energy contr.(sum over a,b,c)...     0.000 sec

Everything after 3-index in T0  ...     0.003 sec

Energy contribution AAA         ...     0.000 sec
Energy contribution AAB         ...     0.001 sec
Energy contribution ABB         ...     0.000 sec
Energy contribution BBB         ...     0.000 sec
prep                ...     0.000 sec
makeTTNO            ...     0.001 sec
copyij              ...     0.000 sec
copyil              ...     0.000 sec
transposeij         ...     0.000 sec
newMatInDoubleProj  ...     0.000 sec
BlasInDoubleProj    ...     0.000 sec
ProjSingles         ...     0.000 sec
ProjDoubles         ...     0.001 sec
overall Doubles for projection      ... 291
used Doubles for projection         ... 291


Number of Triples   (0, 1, 2, 3 weak pairs; overall):     26       0       0       0  (    26)
Number of Atoms     (0, 1, 2, 3 weak pairs; overall):    1.0     0.0     0.0     0.0  (     1)
Number of PAOs      (0, 1, 2, 3 weak pairs; overall):   19.0     0.0     0.0     0.0  (    18)
Number of AuxFcns   (0, 1, 2, 3 weak pairs; overall):   48.0     0.0     0.0     0.0  (    48)
Number of TNOs (0, 1, 2, 3 weak pairs         ):   14.0     0.0     0.0     0.0
Aver. Number of NTNO, Atoms, PAOs, AuxFcns / Triples:     26    14.0     1.0    19.0    48.0
Load balancing information:
Total time                    ...     0.006 sec

Triples Correction (T)                     ...     -0.001603503
    alpha-alpha-alpha ... -0.000071286 (  4.4%)
    alpha-alpha-beta  ... -0.001026813 ( 64.0%)
    alpha-beta -beta  ... -0.000500805 ( 31.2%)
    beta -beta -beta  ... -0.000004599 (  0.3%)
Final correlation energy                   ...     -0.141953861
E(CCSD)                                    ...    -99.507060894
E(CCSD(T))                                 ...    -99.508664398

----------------------------
STATISTICS FOR PAIR-ENERGIES
----------------------------
(AB;    1,    3) UMP= -0.0047993515 UCC= -0.0054732685, ratio=1.14
(AB;    2,    3) UMP= -0.0047993515 UCC= -0.0054732685, ratio=1.14
(AB;    1,    2) UMP= -0.0047993515 UCC= -0.0054732685, ratio=1.14
(AA;    2,    1) UMP= -0.0029262974 UCC= -0.0029310859, ratio=1.00
(AB;    2,    1) UMP= -0.0047993515 UCC= -0.0054732685, ratio=1.14
(BB;    2,    1) UMP= -0.0035532130 UCC= -0.0034907790, ratio=0.98
(AA;    3,    2) UMP= -0.0029262974 UCC= -0.0029310859, ratio=1.00
(AB;    3,    2) UMP= -0.0047993515 UCC= -0.0054732685, ratio=1.14
(BB;    3,    2) UMP= -0.0035532130 UCC= -0.0034907790, ratio=0.98
(AA;    3,    1) UMP= -0.0029262974 UCC= -0.0029310859, ratio=1.00
(AB;    3,    1) UMP= -0.0047993515 UCC= -0.0054732685, ratio=1.14
(BB;    3,    1) UMP= -0.0035532130 UCC= -0.0034907790, ratio=0.98
(AA;    4,    1) UMP= -0.0042622629 UCC= -0.0041292670, ratio=0.97
(AB;    4,    1) UMP= -0.0074510754 UCC= -0.0082448551, ratio=1.11
(AA;    4,    3) UMP= -0.0042622629 UCC= -0.0041292670, ratio=0.97
(AB;    4,    3) UMP= -0.0074510754 UCC= -0.0082448551, ratio=1.11
(AA;    4,    2) UMP= -0.0042622629 UCC= -0.0041292670, ratio=0.97
(AB;    4,    2) UMP= -0.0074510754 UCC= -0.0082448551, ratio=1.11
(AB;    1,    1) UMP= -0.0135065582 UCC= -0.0158560185, ratio=1.17
(AB;    2,    2) UMP= -0.0135065582 UCC= -0.0158560185, ratio=1.17
(AB;    3,    3) UMP= -0.0135065582 UCC= -0.0158560185, ratio=1.17
Minimum, maximum and average ratios of UMP and CCSD pair-energies ... 0.97, 1.17, 1.07


--------------------------------------------------------------------------------
                                    TIMINGS
--------------------------------------------------------------------------------


Total execution time                   ...        0.329 sec

Localization of occupied MO's          ...        0.032 sec (  9.6%)
Fock Matrix Formation                  ...        0.002 sec (  0.6%)
Differential overlap integrals         ...        0.007 sec (  2.2%)
Organizing maps                        ...        0.000 sec (  0.1%)
RI 3-index integral generations        ...        0.035 sec ( 10.6%)
RI-PNO integral transformation         ...        0.008 sec (  2.6%)
Initial Guess                          ...        0.008 sec (  2.4%)
DIIS Solver                            ...        0.004 sec (  1.2%)
State Vector Update                    ...        0.000 sec (  0.0%)
Sigma-vector construction              ...        0.094 sec ( 28.7%)
  <D|H|D>(0-ext)                       ...        0.003 sec (  2.9% of sigma)
  <D|H|D>(2-ext)                       ...        0.016 sec ( 17.0% of sigma)
  <D|H|D>(4-ext)                       ...        0.005 sec (  5.2% of sigma)
  <D|H|D>(4-ext-corr)                  ...        0.014 sec ( 15.1% of sigma)
  CCSD doubles correction              ...        0.003 sec (  3.4% of sigma)
  <S|H|S>                              ...        0.003 sec (  2.8% of sigma)
  <S|H|D>(1-ext)                       ...        0.003 sec (  3.0% of sigma)
  <S|H|D>(3-ext)                       ...        0.002 sec (  1.8% of sigma)
  Fock-dressing                        ...        0.015 sec ( 16.1% of sigma)
  (ik|jl)-dressing                     ...        0.005 sec (  4.8% of sigma)
  (ij|ab),(ia|jb)-dressing             ...        0.016 sec ( 17.1% of sigma)
Total Time for computing (T)           ...        0.007 sec (  2.1% of ALL)


Maximum memory used throughout the entire MDCI-calculation: 15.1 MB

-------------------------   --------------------
FINAL SINGLE POINT ENERGY       -99.508664397669
-------------------------   --------------------


------------------------------------------------------------------------------
                              ORCA PROPERTY CALCULATIONS
------------------------------------------------------------------------------

GBWName                                 ... /home/ubuntu/Shiwei/qm9_reaction_eng/qm9_orca_work/qm9_orca_work_elem/f/f_ccsdt_631+gss.gbw
Number of atoms                         ...      1
Number of basis functions               ...     18
Max core memory                         ...   8000 MB

Electric properties:
Dipole moment                           ... YES
Quadrupole moment                       ...  NO
Static polarizability (Dipole/Dipole)   ...  NO
Static polarizability (Dipole/Quad.)    ...  NO
Static polarizability (Quad./Quad.)     ...  NO
Static polarizability (Velocity)        ...  NO

Atomic electric properties:
Dipole moment                           ...  NO
Quadrupole moment                       ...  NO
Static polarizability                   ...  NO

Choice of electric origin               ... Center of mass
Position of electric origin             ...     0.000000     0.000000     0.000000

General magnetic properties:
Magnetizability                         ...  NO

EPR properties:
g-Tensor (aka g-matrix)                 ...  NO
Zero-Field splitting spin-orbit         ...  NO
Zero-field splitting spin-spin          ...  NO
Hyperfine couplings                     ...  NO (   0 nuclei)
Quadrupole couplings                    ...  NO (   0 nuclei)
Contact density                         ...  NO (   0 nuclei)

NMR properties:
Chemical shifts                         ...  NO (   0 nuclei)
Spin-rotation constants                 ...  NO (   0 nuclei)
Spin-spin couplings                     ...  NO (   0 nuclei,    0 pairs)

Choice of magnetic origin               ... GIAO
Position of magnetic origin             ...     0.000000     0.000000     0.000000

Properties with geometric perturbations:
SCF Hessian                             ...  NO
IR spectrum                             ...  NO
VCD spectrum                            ...  NO
X-ray spectroscopy properties:
SCF XES/XAS/RIXS spectra                ...  NO


-------------
DIPOLE MOMENT
-------------

Method             : SCF
Type of density    : Electron Density
Multiplicity       :   2
Irrep              :   0
Energy             :   -99.3700090270678231 Eh
Relativity type    : 
Basis              : AO
                                X                 Y                 Z
Electronic contribution:      0.000000000       0.000000000       0.000000000
Nuclear contribution   :      0.000000000       0.000000000       0.000000000
                        -----------------------------------------
Total Dipole Moment    :      0.000000000       0.000000000       0.000000000
                        -----------------------------------------
Magnitude (a.u.)       :      0.000000000
Magnitude (Debye)      :      0.000000000



--------------------
Rotational spectrum 
--------------------
 
Rotational constants in cm-1:             0.000000             0.000000             0.000000 
Rotational constants in MHz :             0.000000             0.000000             0.000000 

Dipole components along the rotational axes: 
x,y,z [a.u.] :     0.000000     0.000000     0.000000 
x,y,z [Debye]:     0.000000     0.000000     0.000000 

 

Dipole moment calculation done in   0.0 sec 

Maximum memory used throughout the entire PROP-calculation: 3.4 MB

--------------------------------
SUGGESTED CITATIONS FOR THIS RUN
--------------------------------

Below you find a list of papers that are relevant to this ORCA run
We neither can nor want to force you to cite these papers, but we appreciate if you do
You receive ORCA, which is the product of decades of hard work by many enthusiastic individuals, for free
The only thing we kindly ask in return is that you cite our papers,
We deeply appreciate it, if you show your appreciation for ORCA by not just citing the generic ORCA reference.

Please note that relegating all ORCA citations to the supporting information does *not* help us.
SI sections are not indexed - citations you put there will not count into any citation statistics
But we need these citations in order to attract the funding resources that allow us to do what we are doing

Therefore, if you are a happy ORCA user, please consider citing a few of the papers listed below in the main body of your paper

In addition to the list printed below, the program has created the file /home/ubuntu/Shiwei/qm9_reaction_eng/qm9_orca_work/qm9_orca_work_elem/f/f_ccsdt_631+gss.bibtex that contains the list in bibtex format
You can import this file easily into all common literature databanks and citation aid programs


List of essential papers. We consider these as the minimum necessary citations

  1. Neese,F.
     Software update: the ORCA program system, version 5.0
     WIRES Comput. Molec. Sci., 2022 12(1)e1606
     doi.org/10.1002/wcms.1606

List of papers to cite with high priority. The work reported in these papers was absolutely
necessary for this run to complete.
Our perspective: the developers of density functionals and basis sets usually get cited in chemistry papers
Good! But without the algorithms to do something with them, the functionals or basis sets would not do anything.
Hence, in our opinion, the algorithm design and method developments papers are equally worthy of getting cited

  1. Neese,F.
     An improvement of the resolution of the identity approximation for the formation of the Coulomb matrix
     J. Comp. Chem., 2003 24(14)1740-1747
     doi.org/10.1002/jcc.10318
  2. Kossmann,S.; Neese,F.
     Comparison of two efficient approximate Hartee-Fock approaches
     Chem. Phys. Lett., 2009 481 240-243
     doi.org/10.1016/j.cplett.2009.09.073
  3. Neese,F.; Hansen,A.; Liakos,D.G.
     Efficient and accurate approximations to the local coupled cluster singles doubles method using a truncated pair natural orbital basis
     J. Chem. Phys., 2009 131 064103
     doi.org/10.1063/1.3173827
  4. Neese,F.; Wennmohs,F.; Hansen,A.
     Efficient and accurate local approximations to coupled-electron pair approaches: An attempt to revive the pair natural orbital method
     J. Chem. Phys., 2009 130 114108
     doi.org/10.1063/1.3086717
  5. Riplinger,C.; Neese,F.
     An efficient and near linear scaling pair natural orbital based local coupled cluster method
     J. Chem. Phys., 2013 138(3)Art. No. 034106
     doi.org/10.1063/1.4773581
  6. Riplinger,C.; Sandhoefer,B.; Hansen,A.; Neese,F.
     Natural triple excitations in local coupled cluster calculations with pair natural orbitals
     J. Chem. Phys., 2013 139(13)Art. No. 134101
     doi.org/10.1063/1.4821834
  7. Riplinger,C.; Pinski,P.; Becker,U.; Valeev,E.F.; Neese,F.
     Sparse maps-A systematic infrastructure for reduced-scaling electronic structure methods. II. Linear scaling domain based pair natural orbital coupled cluster theory
     J. Chem. Phys., 2016 144 
     doi.org/10.1063/1.4939030
  8. Bistoni,G.; Riplinger,C.; Minenkov,Y.; Cavallo,L.; Auer,A.A.; Neese,F.
     Treating Subvalence Correlation Effects in Domain Based Pair Natural Orbital Coupled Cluster Calculations: An Out-of-the-Box Approach
     J. Theo. Comp. Chem., 2017 13 3220-3227
     doi.org/10.1021/acs.jctc.7b00352
  9. Saitow,M.; Becker,U.; Riplinger,C.; Valeev,E.; Neese,F.
     A new near-linear scaling, efficient and accurate, open-shell domain-based local pair natural orbital coupled cluster singles and doubles theory
     J. Chem. Phys., 2017 146 164105
 10. Neese,F.
     The SHARK Integral Generation and Digestion System
     J. Comp. Chem., 2022  1-16
     doi.org/10.1002/jcc.26942

List of suggested additional citations. These are papers that are important in the 'surrounding' of 
of this run, or papers that preceded the highly important papers. If you like your results we are grateful for a citation.

  1. Hansen,A.; Liakos,D.G.; Neese,F.
     Efficient and accurate local single reference correlation methods for high-spin open-shell molecules using pair natural orbitals
     J. Chem. Phys., 2011 135 214102
     doi.org/10.1063/1.3663855
  2. Neese,F.
     The ORCA program system
     WIRES Comput. Molec. Sci., 2012 2(1)73-78
     doi.org/10.1002/wcms.81
  3. Neese,F.
     Software update: the ORCA program system, version 4.0
     WIRES Comput. Molec. Sci., 2018 8(1)1-6
     doi.org/10.1002/wcms.1327
  4. Saitow,M.; Neese,F.
     Accurate spin-densities based on the domain-based local pair-natural orbital coupled-cluster theory
     J. Chem. Phys., 2018 149 034104
  5. Neese,F.; Wennmohs,F.; Becker,U.; Riplinger,C.
     The ORCA quantum chemistry program package
     J. Chem. Phys., 2020 152 Art. No. L224108
     doi.org/10.1063/5.0004608

List of optional additional citations

  1. Neese,F.
     Approximate second-order SCF convergence for spin unrestricted wavefunctions
     Chem. Phys. Lett., 2000 325(1-3)93-98
     doi.org/10.1016/s0009-2614(00)00662-x

Timings for individual modules:

Sum of individual times          ...        0.655 sec (=   0.011 min)
Startup calculation              ...        0.060 sec (=   0.001 min)   9.2 %
SCF iterations                   ...        0.109 sec (=   0.002 min)  16.6 %
Property integrals               ...        0.089 sec (=   0.001 min)  13.5 %
Property calculations            ...        0.048 sec (=   0.001 min)   7.4 %
MDCI module                      ...        0.345 sec (=   0.006 min)  52.7 %
Orbital localization             ...        0.004 sec (=   0.000 min)   0.6 %
                             ****ORCA TERMINATED NORMALLY****
TOTAL RUN TIME: 0 days 0 hours 0 minutes 0 seconds 708 msec
