
                                 *****************
                                 * O   R   C   A *
                                 *****************

                                            #,                                       
                                            ###                                      
                                            ####                                     
                                            #####                                    
                                            ######                                   
                                           ########,                                 
                                     ,,################,,,,,                         
                               ,,#################################,,                 
                          ,,##########################################,,             
                       ,#########################################, ''#####,          
                    ,#############################################,,   '####,        
                  ,##################################################,,,,####,       
                ,###########''''           ''''###############################       
              ,#####''   ,,,,##########,,,,          '''####'''          '####       
            ,##' ,,,,###########################,,,                        '##       
           ' ,,###''''                  '''############,,,                           
         ,,##''                                '''############,,,,        ,,,,,,###''
      ,#''                                            '''#######################'''  
     '                                                          ''''####''''         
             ,#######,   #######,   ,#######,      ##                                
            ,#'     '#,  ##    ##  ,#'     '#,    #''#        ,####,   ,####,        
            ##       ##  ##   ,#'  ##            #'  '#       #'       #'  '#        
            ##       ##  #######   ##           ,######,      #####,   #    #        
            '#,     ,#'  ##    ##  '#,     ,#' ,#      #,     #,   #   #,  ,#        
             '#######'   ##     ##  '#######'  #'      '#     '####' # '####'        



                #########################################################
                #                        -***-                          #
                #          Department of theory and spectroscopy        #
                #                                                       #
                #                      Frank Neese                      #
                #                                                       #
                #     Directorship, Architecture, Infrastructure        #
                #                    SHARK, DRIVERS                     #
                #        Core code/Algorithms in most modules           #
                #                                                       #
                #        Max Planck Institute fuer Kohlenforschung      #
                #                Kaiser Wilhelm Platz 1                 #
                #                 D-45470 Muelheim/Ruhr                 #
                #                      Germany                          #
                #                                                       #
                #                  All rights reserved                  #
                #                        -***-                          #
                #########################################################


                         Program Version 6.0.1  -  RELEASE   -


 With contributions from (in alphabetic order):
[Max-Planck-Institut fuer Kohlenforschung]                               
  Daniel Aravena         : Magnetic Suceptibility                        
  Michael Atanasov       : Ab Initio Ligand Field Theory (pilot matlab implementation)
  Alexander A. Auer      : GIAO ZORA, VPT2 properties, NMR spectrum      
  Ute Becker             : All parallelization in ORCA, NUMFREQ, NUMCALC 
  Giovanni Bistoni       : ED, misc. LED, open-shell LED, HFLD           
  Martin Brehm           : Molecular dynamics                            
  Dmytro Bykov           : pre 5.0 version of the SCF Hessian            
  Marcos Casanova-Páez   : Triplet and SCS-CIS(D). UHF-(DLPNO)-IP/EA/STEOM-CCSD. UHF-CVS-IP/STEOM-CCSD   
  Vijay G. Chilkuri      : MRCI spin determinant printing, contributions to CSF-ICE 
  Pauline Colinet        : FMM embedding                                 
  Dipayan Datta          : RHF DLPNO-CCSD density                        
  Achintya Kumar Dutta   : EOM-CC, STEOM-CC                              
  Nicolas Foglia         : Exact transition moments, OPA infrastructure, MCD improvements    
  Dmitry Ganyushin       : Spin-Orbit,Spin-Spin,Magnetic field MRCI      
  Miquel Garcia-Rates    : C-PCM and meta-GGA Hessian, CCSD/C-PCM, Gaussian charge scheme 
  Tiago L. C. Gouveia    : GS-ROHF, GS-ROCIS                             
  Yang Guo               : DLPNO-NEVPT2, F12-NEVPT2, CIM, IAO-localization        
  Andreas Hansen         : Spin unrestricted coupled pair/coupled cluster methods 
  Ingolf Harden          : AUTO-CI MPn and infrastructure                
  Benjamin Helmich-Paris : MC-RPA, TRAH-(SCF,CASSCF), AVAS, COSX integrals, SCF dyn. polar. 
  Lee Huntington         : MR-EOM, pCC                                   
  Robert Izsak           : Overlap fitted RIJCOSX, COSX-SCS-MP3, EOM     
  Riya Kayal             : Wick's Theorem for AUTO-CI, AUTO-CI UHF-CCSDT 
  Emily Kempfer          : AUTO-CI, RHF CISDT and CCSDT                  
  Christian Kollmar      : KDIIS, OOCD, Brueckner-CCSD(T), CCSD density, CASPT2, CASPT2-K, improved NEVPT2 
  Axel Koslowski         : Symmetry handling                             
  Simone Kossmann        : meta-GGA functionals, TD-DFT gradient, OOMP2, (MP2 Hessian; deprecated post 5.0) 
  Lucas Lang             : DCDCAS                                        
  Marvin Lechner         : AUTO-CI (C++ implementation), FIC-MRCC        
  Spencer Leger          : CASSCF response                               
  Dagmar Lenk            : GEPOL surface, SMD, ORCA-2-JSON               
  Dimitrios Liakos       : Extrapolation schemes; Compound Job, initial MDCI parallelization 
  Dimitrios Manganas     : Further ROCIS development; embedding schemes. LFT, Crystal Embedding 
  Dimitrios Pantazis     : SARC Basis sets                               
  Anastasios Papadopoulos: AUTO-CI, single reference methods and gradients 
  Taras Petrenko         : pre 6.0 DFT Hessian and TD-DFT gradient, (ASA, deprecated), ECA, 1-Electron XAS/XES, NRVS 
  Peter Pinski           : DLPNO-MP2, DLPNO-MP2 Gradient                 
  Christoph Reimann      : Effective Core Potentials                     
  Marius Retegan         : Local ZFS, SOC                                
  Christoph Riplinger    : Optimizer, TS searches, QM/MM, DLPNO-CCSD(T), (RO)-DLPNO pert. Triples 
  Michael Roemelt        : Original ROCIS implementation                 
  Masaaki Saitow         : Open-shell DLPNO-CCSD energy and density      
  Barbara Sandhoefer     : DKH picture change effects                    
  Kantharuban Sivalingam : CASSCF convergence/infrastructure, NEVPT2 and variants, FIC-MRCI 
  Bernardo de Souza      : ESD, SOC TD-DFT                               
  Georgi L. Stoychev     : AutoAux, RI-MP2 NMR, DLPNO-MP2 response, X2C  
  Van Anh Tran           : RI-MP2 g-tensors                              
  Willem Van den Heuvel  : Paramagnetic NMR                              
  Zikuan Wang            : NOTCH, Electric field optimization            
  Frank Wennmohs         : Technical directorship and infrastructure     
  Hang Xu                : AUTO-CI-Response properties                   
                                                                         
[FACCTs GmbH]                                                            
  Markus Bursch, Miquel Garcia-Rates, Christoph Riplinger, Bernardo de Souza, Georgi L. Stoychev 
                                                                 
  APM, Basis sets (HGBS, AHGBS, def-TZVP (Ac-Lr), def2-XVPD (La-Lu)), CI-OPT, improved COSX, DLPNO-Multilevel,           
  DOCKER, DRACO, updates on ESD, GOAT, IRC, LR-CPCM, MBIS, meta-GGA TD-DFT gradient, ML-optimized integration grids, 
  MM, NACMEs, nearIR, NEB, NEB-TS, NL-DFT gradient (VV10), 2- and 3-layer-ONIOM, interface openCOSMO-RS, QMMM,   
  Crystal-QMMM, SF, symmetry and pop. for TD-DFT, r2SCAN hybrids, SOLVATOR                                   
                                                                         
[Other institutions]                                                     
  V. Asgeirsson          : NEB                                           
  Christoph Bannwarth    : sTDA-DFT, sTD-DFT, PBEh-3c, B97-3c, D3        
  Sebastian Ehlert       : rSCAN, r2SCAN, r2SCAN-3c, D4, dhf basis sets  
  Marvin Friede          : D4 for Fr, Ra, Ac-Lr                          
  Lars Goerigk           : TD-DFT with DH, B97 family of functionals     
  Stefan Grimme          : VdW corrections, initial TS optimization, DFT functionals, gCP, sTDA/sTD-DF 
  Waldemar Hujo          : DFT-NL                                        
  H. Jonsson             : NEB                                           
  Holger Kruse           : gCP                                           
  Marcel Mueller         : wB97X-3c, vDZP basis set                      
  Hagen Neugebauer       : wr2SCAN                                       
  Tobias Risthaus        : range-separated hybrid DFT                    
  Lukas Wittmann         : regularized MP2, r2SCAN double-hybrids, wr2SCAN        
                                                                         
We gratefully acknowledge several colleagues who have allowed us to      
interface, adapt or use parts of their codes:                            
  Ed Valeev, F. Pavosevic, A. Kumar             : LibInt (2-el integral package), F12 methods 
  Garnet Chan, S. Sharma, J. Yang, R. Olivares  : DMRG                   
  Ulf Ekstrom                                   : XCFun DFT Library      
  Mihaly Kallay                                 : mrcc  (arbitrary order and MRCC methods)
  Frank Weinhold                                : gennbo (NPA and NBO analysis)           
  Simon Mueller                                 : openCOSMO-RS                            
  Christopher J. Cramer and Donald G. Truhlar   : smd solvation model                     
  S Lehtola, MJT Oliveira, MAL Marques          : LibXC Library                           
  Liviu Ungur et al                             : ANISO software                          


 Your calculation uses the libint2 library for the computation of 2-el integrals
 For citations please refer to: http://libint.valeyev.net

 Your ORCA version has been built with support for libXC version: 6.2.2
 For citations please refer to: https://libxc.gitlab.io

 This ORCA versions uses:
   CBLAS   interface :  Fast vector & matrix operations
   LAPACKE interface :  Fast linear algebra routines
   SCALAPACK package :  Parallel linear algebra routines
   Shared memory     :  Shared parallel matrices
   BLAS/LAPACK       :  OpenBLAS 0.3.27  USE64BITINT DYNAMIC_ARCH NO_AFFINITY Haswell SINGLE_THREADED
        Core in use  :  Haswell
   Copyright (c) 2011-2014, The OpenBLAS Project


NOTE: MaxCore=8000 MB was set to SCF,MP2,MDCI,CIPSI,MRCI and CIS
      => If you want to overwrite this, your respective input block should be placed after the MaxCore statement
================================================================================

----- Orbital basis set information -----
Your calculation utilizes the basis: cc-pVTZ 
       H, B-Ne : Obtained from the ccRepo (grant-hill.group.shef.ac.uk/ccrepo) Feb. 2017
                 T. H. Dunning, Jr., J. Chem. Phys. 90, 1007 (1989)
            He : Obtained from the ccRepo (grant-hill.group.shef.ac.uk/ccrepo) Feb. 2017
                 D. E. Woon, T. H. Dunning, Jr., J. Chem. Phys. 100, 2975 (1994)
  Li-Be, Na-Mg : Obtained from the ccRepo (grant-hill.group.shef.ac.uk/ccrepo) Feb. 2017
                 B. P. Prascher, D. E. Woon, K. A. Peterson, T. H. Dunning, Jr., A. K. Wilson, Theor. Chem. Acc. 128, 69 (2011)
         Al-Ar : Obtained from the ccRepo (grant-hill.group.shef.ac.uk/ccrepo) Feb. 2017
                 D. E. Woon, T. H. Dunning, Jr., J. Chem. Phys. 98, 1358 (1993)
            Ca : Obtained from the Peterson Research Group Website (tyr0.chem.wsu.edu/~kipeters) Feb. 2017
                 J. Koput, K. A. Peterson, J. Phys. Chem. 106, 9595 (2002)
         Sc-Zn : Obtained from the ccRepo (grant-hill.group.shef.ac.uk/ccrepo) Feb. 2017
                 N. B. Balabanov, K. A. Peterson, J. Chem. Phys. 123, 064107 (2005)
                 N. B. Balabanov, K. A. Peterson, J. Chem. Phys. 125, 074110 (2006)
         Ga-Kr : Obtained from the ccRepo (grant-hill.group.shef.ac.uk/ccrepo) Feb. 2017
                 A. K. Wilson, D. E. Woon, K. A. Peterson, T. H. Dunning, Jr., J. Chem. Phys. 110, 7667 (1999)
             Y : Obtained from the ccRepo (grant-hill.group.shef.ac.uk/ccrepo) Feb. 2017
                 K. A. Peterson, D. Figgen, M. Dolg, H. Stoll, J. Chem. Phys. 126, 124101 (2007)
        Ag, Au : Obtained from the Peterson Research Group Website (tyr0.chem.wsu.edu/~kipeters) Feb. 2017
                 K. A. Peterson, C. Puzzarini, Theor. Chem. Acc. 114, 283 (2005)

----- AuxC basis set information -----
Your calculation utilizes the auxiliary basis: cc-pVTZ/C 
  Obtained from the EMSL Basis Set Exchange (bse.pnl.gov) Feb. 2017
  H-He, B-F, Al-Ar, Ga-Kr : F. Weigend, A. Kohn, C. Hattig, J. Chem. Phys. 116, 3175 (2002)
             Li-Be, Na-Mg : C. Haettig, Phys. Chem. Chem. Phys. 7, 59 (2005)
                       Ne : C. Haettig, Phys. Chem. Chem. Phys. 7, 59 (2005)
                            F. Weigend, A. Kohn, C. Hattig, J. Chem. Phys. 116, 3175 (2002)
                    Sc-Zn : J. G. Hill, J. A. Platts, J. Chem. Phys. 128, 044104 (2008)

----- AuxJK basis set information -----
Your calculation utilizes the auxiliary basis: cc-pVTZ/JK 
  H, B-F, Al-Cl, Ga-Br : Obtained from the TURBOMOLE 7.0 basis set library

================================================================================
                                        WARNINGS
                       Please study these warnings very carefully!
================================================================================

WARNING: Old DensityContainer found on disk!
         Will remove this file - 
         If you want to keep old densities, please start your calculation with a different basename. 


WARNING: your system is open-shell and RHF/RKS was chosen
  ===> : WILL SWITCH to UHF/UKS


WARNING: Post HF methods need fully converged wavefunctions
  ===> : Setting SCFConvForced true
         You can overwrite this default with %scf ConvForced false 


WARNING: Restarting MDCI calulations with QROs will lead to 
         significant changes in the QROs!
  ===> : For restart on a converged wavefunction better use NoIter or MaxIter=0


WARNING: PNO calculations with unrestricted orbitals require UNOs
  ===> : Switching on UNOs

WARNING: Unrestricted DLPNO-CCSD(T0/T) with FullLMP2-Guess requested.
         This is not yet implemented.
         When comparing energies between closed and open shell calculations:
  ===> : Be aware to set UseFullLMP2Guess to false for the corresponding closed shell calculations.
         Note that UseFullLMP2Guess is done by default only for TightPNO closed shell calculations.


WARNING: MDCI localization with Augmented Hessian Foster-Boys
  ===> : Switching off randomization!

WARNING: UseCISUpdate is  only available for RHF calculations...
  ===> : Setting UseCISUpdate = false 

================================================================================
                                       INPUT FILE
================================================================================
NAME = /home/ubuntu/Shiwei/qm9_reaction_eng/qm9_orca_work/qm9_orca_work_elem/f/f_ccsdt_ccpvtz.inp
|  1> ! DLPNO-CCSD(T) cc-pVTZ cc-pVTZ/JK RIJK cc-pVTZ/C
|  2> %maxcore 8000
|  3> %method
|  4> FrozenCore FC_ELECTRONS
|  5> end
|  6> 
|  7> %mdci
|  8>    TCutPairs 1e-6
|  9>    printlevel 4
| 10> end
| 11> 
| 12> %loc
| 13> LocMet AHFB
| 14> OCC true
| 15> end
| 16> 
| 17> *xyz 0 2
| 18> F 0.0 0.0 0.0
| 19> *
| 20> 
| 21>                          ****END OF INPUT****
================================================================================

                       ****************************
                       * Single Point Calculation *
                       ****************************

---------------------------------
CARTESIAN COORDINATES (ANGSTROEM)
---------------------------------
  F      0.000000    0.000000    0.000000

----------------------------
CARTESIAN COORDINATES (A.U.)
----------------------------
  NO LB      ZA    FRAG     MASS         X           Y           Z
   0 F     9.0000    0    18.998    0.000000    0.000000    0.000000

--------------------------------
INTERNAL COORDINATES (ANGSTROEM)
--------------------------------
 F      0   0   0     0.000000000000     0.00000000     0.00000000

---------------------------
INTERNAL COORDINATES (A.U.)
---------------------------
 F      0   0   0     0.000000000000     0.00000000     0.00000000

---------------------
BASIS SET INFORMATION
---------------------
There are 1 groups of distinct atoms

 Group   1 Type F   : 18s5p2d1f contracted to 4s3p2d1f pattern {8811/311/11/1}

Atom   0F    basis set group =>   1
---------------------------------
AUXILIARY/C BASIS SET INFORMATION
---------------------------------
There are 1 groups of distinct atoms

 Group   1 Type F   : 8s6p5d3f1g contracted to 8s6p5d3f1g pattern {11111111/111111/11111/111/1}

Atom   0F    basis set group =>   1
----------------------------------
AUXILIARY/JK BASIS SET INFORMATION
----------------------------------
There are 1 groups of distinct atoms

 Group   1 Type F   : 10s7p5d2f1g contracted to 10s7p5d2f1g pattern {1111111111/1111111/11111/11/1}

Atom   0F    basis set group =>   1

Checking for AutoStart:
The File: /home/ubuntu/Shiwei/qm9_reaction_eng/qm9_orca_work/qm9_orca_work_elem/f/f_ccsdt_ccpvtz.gbw exists
Trying to determine its content:
     ... Fine, the file contains calculation information
     ... Fine, the calculation information was read
     ... Fine, the file contains a basis set
     ... Fine, the basis set was read
     ... Fine, the file contains a geometry
     ... Fine, the geometry was read
     ... Fine, the file contains a set of orbitals
     ... Fine, the orbitals can be read
     => possible old guess file was deleted
     => GBW file was renamed to GES file
     => GES file is set as startup file
     => Guess is set to MORead
     ... now leaving AutoStart

------------------------------------------------------------------------------
                             ORCA STARTUP CALCULATIONS
                           -- RI-GTO INTEGRALS CHOSEN --
------------------------------------------------------------------------------
------------------------------------------------------------------------------
                   ___                                                        
                  /   \      - P O W E R E D   B Y -                         
                 /     \                                                     
                 |  |  |   _    _      __       _____    __    __             
                 |  |  |  | |  | |    /  \     |  _  \  |  |  /  |          
                  \  \/   | |  | |   /    \    | | | |  |  | /  /          
                 / \  \   | |__| |  /  /\  \   | |_| |  |  |/  /          
                |  |  |   |  __  | /  /__\  \  |    /   |      \           
                |  |  |   | |  | | |   __   |  |    \   |  |\   \          
                \     /   | |  | | |  |  |  |  | |\  \  |  | \   \       
                 \___/    |_|  |_| |__|  |__|  |_| \__\ |__|  \__/        
                                                                              
                      - O R C A' S   B I G   F R I E N D -                    
                                      &                                       
                       - I N T E G R A L  F E E D E R -                       
                                                                              
 v1 FN, 2020, v2 2021, v3 2022-2024                                           
------------------------------------------------------------------------------


----------------------
SHARK INTEGRAL PACKAGE
----------------------

Number of atoms                             ...      1
Number of basis functions                   ...     36
Number of shells                            ...     16
Maximum angular momentum                    ...      3
Integral batch strategy                     ... SHARK/LIBINT Hybrid
RI-J (if used) integral strategy            ... SPLIT-RIJ (Revised 2003 algorithm where possible)
Printlevel                                  ...      1
Contraction scheme used                     ... PARTIAL GENERAL contraction
Prescreening option                         ... SCHWARTZ
   Thresh                                   ... 1.000e-10
   Tcut                                     ... 1.000e-11
   Tpresel                                  ... 1.000e-11 
Coulomb Range Separation                    ... NOT USED
Exchange Range Separation                   ... NOT USED
Multipole approximations                    ... NOT USED
Finite Nucleus Model                        ... NOT USED
CABS basis                                  ... NOT available
Auxiliary Coulomb fitting basis             ... NOT available
Auxiliary J/K fitting basis                 ... AVAILABLE
   # of basis functions in Aux-JK           ...     79
   # of shells in Aux-JK                    ...     25
   Maximum angular momentum in Aux-JK       ...      4
Auxiliary Correlation fitting basis         ... AVAILABLE
   # of basis functions in Aux-C            ...     81
   # of shells in Aux-C                     ...     23
   Maximum angular momentum in Aux-C        ...      4
Auxiliary 'external' fitting basis          ... NOT available

Checking pre-screening integrals            ... done (  0.0 sec) Dimension = 16
Save PGC pre-screening integrals            ... done (  0.0 sec) Dimension = 16
Calculate PGC overlap integrals             ... done (  0.0 sec) Dimension = 10
Calculating pre-screening integrals (ORCA)  ... done (  0.0 sec) Dimension = 10
Check shell pair data                       ... done (  0.0 sec)
Shell pair information
Shell pair cut-off parameter TPreSel        ...   1.0e-11
Total number of shell pairs                 ...       136
Shell pairs after pre-screening             ...       136
Total number of primitive shell pairs       ...       174
Primitive shell pairs kept                  ...       174
          la=0 lb=0:     55 shell pairs
          la=1 lb=0:     30 shell pairs
          la=1 lb=1:      6 shell pairs
          la=2 lb=0:     20 shell pairs
          la=2 lb=1:      6 shell pairs
          la=2 lb=2:      3 shell pairs
          la=3 lb=0:     10 shell pairs
          la=3 lb=1:      3 shell pairs
          la=3 lb=2:      2 shell pairs
          la=3 lb=3:      1 shell pairs

Calculating one electron integrals          ... done (  0.0 sec)
Calculating RI/JK V-Matrix + Cholesky decomp... done (  0.0 sec)
Calculating RI/C V-Matrix + Cholesky decomp.... done (  0.0 sec)
Calculating Nuclear repulsion               ... done (  0.0 sec) ENN=      0.000000000000 Eh

Diagonalization of the overlap matrix:
Smallest eigenvalue                        ... 4.249e-02
Time for diagonalization                   ...    0.000 sec
Threshold for overlap eigenvalues          ... 1.000e-07
Number of eigenvalues below threshold      ... 0
Time for construction of square roots      ...    0.000 sec
Total time needed                          ...    0.000 sec

-------------------
DFT GRID GENERATION
-------------------

General Integration Accuracy     IntAcc      ... 4.388
Radial Grid Type                 RadialGrid  ... OptM3 with GC (2021)
Angular Grid (max. ang.)         AngularGrid ... 4 (Lebedev-302)
Angular grid pruning method      GridPruning ... 4 (adaptive)
Weight generation scheme         WeightScheme... mBecke (2022)
Basis function cutoff            BFCut       ... 1.0000e-10
Integration weight cutoff        WCut        ... 1.0000e-14
Partially contracted basis set               ... off
Rotationally invariant grid construction     ... off
Angular grids for H and He will be reduced by one unit

Total number of grid points                  ...     6136
Total number of batches                      ...       96
Average number of points per batch           ...       63
Average number of grid points per atom       ...     6136

---------------------
SHARK GRID GENERATION
---------------------

General Integration Accuracy     IntAcc      ... 4.388
Radial Grid Type                 RadialGrid  ... OptM3 with GC (2021)
Angular Grid (max. ang.)         AngularGrid ... 4 (Lebedev-302)
Angular grid pruning method      GridPruning ... 4 (adaptive)
Weight generation scheme         WeightScheme... mBecke (2022)
Basis function cutoff            BFCut       ... 1.0000e-10
Integration weight cutoff        WCut        ... 1.0000e-14
Partially contracted basis set               ... off
Rotationally invariant grid construction     ... off
Angular grids for H and He will be reduced by one unit
Steep s-basis detected: some atoms will have their radial
                        grid points doubled.

Total number of grid points                  ...    12380
Total number of batches                      ...      194
Average number of points per batch           ...       63
Average number of grid points per atom       ...    12380
Initializing property integral containers    ... done (  0.0 sec)

SHARK setup successfully completed in   0.1 seconds

Maximum memory used throughout the entire STARTUP-calculation: 17.5 MB
-------------------------------------------------------------------------------
                                 ORCA GUESS
                   Start orbitals & Density for SCF / CASSCF
-------------------------------------------------------------------------------

------------
SCF SETTINGS
------------
Hamiltonian:
 Ab initio Hamiltonian  Method          .... Hartree-Fock(GTOs)
 RI-approximation to the Coulomb term is turned on
   Number of AuxJK basis functions      .... 79
   RI-JK (J+K treated both via RI)      .... on


General Settings:
 Integral files         IntName         .... /home/ubuntu/Shiwei/qm9_reaction_eng/qm9_orca_work/qm9_orca_work_elem/f/f_ccsdt_ccpvtz
 Hartree-Fock type      HFTyp           .... UHF
 Total Charge           Charge          ....    0
 Multiplicity           Mult            ....    2
 Number of Electrons    NEL             ....    9
 Basis Dimension        Dim             ....   30
 Nuclear Repulsion      ENuc            ....      0.0000000000 Eh

Convergence Acceleration:
 AO-DIIS                CNVDIIS         .... on
   Start iteration      DIISMaxIt       ....    12
   Startup error        DIISStart       ....  0.200000
   # of expansion vecs  DIISMaxEq       ....     5
   Bias factor          DIISBfac        ....   1.050
   Max. coefficient     DIISMaxC        ....  10.000
 MO-DIIS                CNVKDIIS        .... off
 Trust-Rad. Augm. Hess. CNVTRAH         .... auto
   Auto Start mean grad. ratio tolernc. ....  1.125000
   Auto Start start iteration           ....     1
   Auto Start num. interpolation iter.  ....    10
   Max. Number of Micro iterations      ....    24
   Max. Number of Macro iterations      .... Maxiter - #DIIS iter
   Number of Davidson start vectors     ....     2
   Converg. threshold    (grad. norm)   ....   5.000e-05
   Grad. Scal. Fac. for Micro threshold ....   0.100
   Minimum threshold for Micro iter.    ....   1.000e-02
   NR start threshold (gradient norm)   ....   1.000e-04
   Initial trust radius                 ....   0.400
   Minimum AH scaling param. (alpha)    ....   1.000
   Maximum AH scaling param. (alpha)    .... 1000.000
   Quad. conv. algorithm                .... NR
   White noise on init. David. guess    .... on
   Maximum white noise                  ....   0.010
   Pseudo random numbers                .... off
   Inactive MOs                         .... canonical
   Orbital update algorithm             .... Taylor
   Preconditioner                       .... Diag
   Full preconditioner red. dimension   ....   250
 SOSCF                  CNVSOSCF        .... on
   Start iteration      SOSCFMaxIt      ....   150
   Startup grad/error   SOSCFStart      ....  0.003300
   Hessian update       SOSCFHessUp     .... L-BFGS
 Level Shifting         CNVShift        .... on
   Level shift para.    LevelShift      ....    0.2500
   Turn off err/grad.   ShiftErr        ....    0.0010
 Zerner damping         CNVZerner       .... off
 Static damping         CNVDamp         .... on
   Fraction old density DampFac         ....    0.7000
   Max. Damping (<1)    DampMax         ....    0.9800
   Min. Damping (>=0)   DampMin         ....    0.0000
   Turn off err/grad.   DampErr         ....    0.1000

SCF Procedure:
 Maximum # iterations   MaxIter         ....   125
 SCF integral mode      SCFMode         .... Direct
   Integral package                     .... SHARK and LIBINT hybrid scheme
 Reset frequency        DirectResetFreq ....    20
 Integral Threshold     Thresh          ....  1.000e-10 Eh
 Primitive CutOff       TCut            ....  1.000e-11 Eh

Convergence Tolerance:
 Convergence Check Mode ConvCheckMode   .... Total+1el-Energy
 Convergence forced     ConvForced      .... 1
 Energy Change          TolE            ....  1.000e-06 Eh
 1-El. energy change                    ....  1.000e-03 Eh
 Orbital Gradient       TolG            ....  5.000e-05
 Orbital Rotation angle TolX            ....  5.000e-05
 DIIS Error             TolErr          ....  1.000e-06

---------------------
INITIAL GUESS: MOREAD
---------------------
Guess MOs are being read from file: /home/ubuntu/Shiwei/qm9_reaction_eng/qm9_orca_work/qm9_orca_work_elem/f/f_ccsdt_ccpvtz.ges
Input Geometry matches current geometry (good)
Input basis set matches current basis set (good)
MOs were renormalized
MOs were reorthogonalized (Cholesky)
                      ------------------
                      INITIAL GUESS DONE (   0.0 sec)
                      ------------------
             **** ENERGY FILE WAS UPDATED (/home/ubuntu/Shiwei/qm9_reaction_eng/qm9_orca_work/qm9_orca_work_elem/f/f_ccsdt_ccpvtz.en.tmp) ****
Finished Guess after   0.0 sec
Maximum memory used throughout the entire GUESS-calculation: 6.9 MB

-------------------------------------------------------------------------------------------
                                      ORCA LEAN-SCF
                              memory conserving SCF solver
-------------------------------------------------------------------------------------------

----------------------------------------D-I-I-S--------------------------------------------
Iteration    Energy (Eh)           Delta-E    RMSDP     MaxDP     DIISErr   Damp  Time(sec)
-------------------------------------------------------------------------------------------
                              *** Initializing SOSCF ***
---------------------------------------S-O-S-C-F--------------------------------------
Iteration    Energy (Eh)           Delta-E    RMSDP     MaxDP     MaxGrad    Time(sec)
--------------------------------------------------------------------------------------
    1    -99.4055193129011059     0.00e+00  8.84e-07  7.95e-06  5.25e-06     0.0
    2    -99.4055193147735565    -1.87e-09  4.15e-07  5.14e-06  1.04e-05     0.0
                  *** Gradient check signals convergence ***

               *****************************************************
               *                     SUCCESS                       *
               *           SCF CONVERGED AFTER   2 CYCLES          *
               *****************************************************

             **** ENERGY FILE WAS UPDATED (/home/ubuntu/Shiwei/qm9_reaction_eng/qm9_orca_work/qm9_orca_work_elem/f/f_ccsdt_ccpvtz.en.tmp) ****

----------------
TOTAL SCF ENERGY
----------------

Total Energy       :        -99.40551931477356 Eh           -2704.96170 eV

Components:
Nuclear Repulsion  :          0.00000000000000 Eh               0.00000 eV
Electronic Energy  :        -99.40551931477356 Eh           -2704.96170 eV
One Electron Energy:       -139.26266488005254 Eh           -3789.52977 eV
Two Electron Energy:         39.85714556527898 Eh            1084.56807 eV

Virial components:
Potential Energy   :       -198.81491663210107 Eh           -5410.02892 eV
Kinetic Energy     :         99.40939731732750 Eh            2705.06722 eV
Virial Ratio       :          1.99996098957786

---------------
SCF CONVERGENCE
---------------

  Last Energy change         ...    1.8725e-09  Tolerance :   1.0000e-06
  Last MAX-Density change    ...    5.1393e-06  Tolerance :   1.0000e-05
  Last RMS-Density change    ...    4.1532e-07  Tolerance :   1.0000e-06
  Last DIIS Error            ...    2.3447e-05  Tolerance :   1.0000e-06
  Last Orbital Gradient      ...    1.0396e-05  Tolerance :   5.0000e-05
  Last Orbital Rotation      ...    6.1368e-06  Tolerance :   5.0000e-05


----------------------
UHF SPIN CONTAMINATION
----------------------

Expectation value of <S**2>     :     0.753414
Ideal value S*(S+1) for S=0.5   :     0.750000
Deviation                       :     0.003414

----------------
ORBITAL ENERGIES
----------------
                 SPIN UP ORBITALS
  NO   OCC          E(Eh)            E(eV) 
   0   1.0000     -26.403107      -718.4651 
   1   1.0000      -1.668771       -45.4096 
   2   1.0000      -0.839747       -22.8507 
   3   1.0000      -0.726935       -19.7809 
   4   1.0000      -0.726935       -19.7809 
   5   0.0000       0.854263        23.2457 
   6   0.0000       0.903646        24.5894 
   7   0.0000       0.903646        24.5894 
   8   0.0000       1.132767        30.8241 
   9   0.0000       2.151805        58.5536 
  10   0.0000       2.169308        59.0299 
  11   0.0000       2.169308        59.0299 
  12   0.0000       2.225296        60.5534 
  13   0.0000       2.225296        60.5534 
  14   0.0000       4.911877       133.6590 
  15   0.0000       4.999098       136.0324 

                 SPIN DOWN ORBITALS
  NO   OCC          E(Eh)            E(eV) 
   0   1.0000     -26.355530      -717.1704 
   1   1.0000      -1.474649       -40.1272 
   2   1.0000      -0.676350       -18.4044 
   3   1.0000      -0.676350       -18.4044 
   4   0.0000       0.068990         1.8773 
   5   0.0000       0.919645        25.0248 
   6   0.0000       0.919645        25.0248 
   7   0.0000       1.024720        27.8841 
   8   0.0000       1.178466        32.0677 
   9   0.0000       2.231818        60.7308 
  10   0.0000       2.231818        60.7308 
  11   0.0000       2.263124        61.5827 
  12   0.0000       2.263124        61.5827 
  13   0.0000       2.275155        61.9101 
  14   0.0000       5.025979       136.7639 
*Only the first 10 virtual orbitals were printed.

                    ********************************
                    * MULLIKEN POPULATION ANALYSIS *
                    ********************************

--------------------------------------------
MULLIKEN ATOMIC CHARGES AND SPIN POPULATIONS
--------------------------------------------
   0 F :    0.000000    1.000000
Sum of atomic charges         :    0.0000000
Sum of atomic spin populations:    1.0000000

-----------------------------------------------------
MULLIKEN REDUCED ORBITAL CHARGES AND SPIN POPULATIONS
-----------------------------------------------------
CHARGE
  0 F s       :     3.998980  s :     3.998980
      pz      :     1.461715  p :     4.999843
      px      :     1.538173
      py      :     1.999955
      dz2     :     0.000096  d :     0.001020
      dxz     :     0.000761
      dyz     :     0.000000
      dx2y2   :     0.000163
      dxy     :     0.000000
      f0      :     0.000023  f :     0.000157
      f+1     :     0.000046
      f-1     :     0.000008
      f+2     :     0.000034
      f-2     :     0.000028
      f+3     :     0.000009
      f-3     :     0.000009


SPIN
  0 F s       :     0.000230  s :     0.000230
      pz      :     0.538172  p :     0.999845
      px      :     0.461718
      py      :    -0.000044
      dz2     :    -0.000022  d :    -0.000230
      dxz     :    -0.000171
      dyz     :    -0.000000
      dx2y2   :    -0.000037
      dxy     :    -0.000000
      f0      :     0.000023  f :     0.000155
      f+1     :     0.000046
      f-1     :     0.000008
      f+2     :     0.000033
      f-2     :     0.000027
      f+3     :     0.000009
      f-3     :     0.000009



                     *******************************
                     * LOEWDIN POPULATION ANALYSIS *
                     *******************************

-------------------------------------------
LOEWDIN ATOMIC CHARGES AND SPIN POPULATIONS
-------------------------------------------
   0 F :    0.000000    1.000000

----------------------------------------------------
LOEWDIN REDUCED ORBITAL CHARGES AND SPIN POPULATIONS
----------------------------------------------------
CHARGE
  0 F s       :     3.998980  s :     3.998980
      pz      :     1.461715  p :     4.999843
      px      :     1.538173
      py      :     1.999955
      dz2     :     0.000096  d :     0.001020
      dxz     :     0.000761
      dyz     :     0.000000
      dx2y2   :     0.000163
      dxy     :     0.000000
      f0      :     0.000023  f :     0.000157
      f+1     :     0.000046
      f-1     :     0.000008
      f+2     :     0.000034
      f-2     :     0.000028
      f+3     :     0.000009
      f-3     :     0.000009


SPIN
  0 F s       :     0.000230  s :     0.000230
      pz      :     0.538172  p :     0.999845
      px      :     0.461718
      py      :    -0.000044
      dz2     :    -0.000022  d :    -0.000230
      dxz     :    -0.000171
      dyz     :    -0.000000
      dx2y2   :    -0.000037
      dxy     :    -0.000000
      f0      :     0.000023  f :     0.000155
      f+1     :     0.000046
      f-1     :     0.000008
      f+2     :     0.000033
      f-2     :     0.000027
      f+3     :     0.000009
      f-3     :     0.000009



                      *****************************
                      * MAYER POPULATION ANALYSIS *
                      *****************************

  NA   - Mulliken gross atomic population
  ZA   - Total nuclear charge
  QA   - Mulliken gross atomic charge
  VA   - Mayer's total valence
  BVA  - Mayer's bonded valence
  FA   - Mayer's free valence

  ATOM       NA         ZA         QA         VA         BVA        FA
  0 F      9.0000     9.0000     0.0000     1.0068     0.0000     1.0068

  Mayer bond orders larger than 0.100000
  => no bond orders to print

             ***UHF Natural Spin-Orbitals were saved in /home/ubuntu/Shiwei/qm9_reaction_eng/qm9_orca_work/qm9_orca_work_elem/f/f_ccsdt_ccpvtz.unso***
                ***UHF Natural Orbitals were saved in /home/ubuntu/Shiwei/qm9_reaction_eng/qm9_orca_work/qm9_orca_work_elem/f/f_ccsdt_ccpvtz.uno***
QR-MO GENERATION
 Dim     =   30
 Mult    =    2
 NEl     =    9
 N(DOMO) =    4
 N(SOMO) =    1
 N(VMO)  =   25

                ***Quasi-Restricted Orbitals were saved in /home/ubuntu/Shiwei/qm9_reaction_eng/qm9_orca_work/qm9_orca_work_elem/f/f_ccsdt_ccpvtz.qro***

Orbital Energies of Quasi-Restricted MO's
   0( 2) :   -26.355499 a.u.  -717.170 eV
   1( 2) :    -1.472131 a.u.   -40.059 eV
   2( 2) :    -0.676070 a.u.   -18.397 eV
   3( 2) :    -0.676070 a.u.   -18.397 eV
   4( 1) :    -0.353898 a.u.    -9.630 eV alpha=  -22.851 beta=    3.591
   5( 0) :     0.854263 a.u.    23.246 eV
   6( 0) :     0.903483 a.u.    24.585 eV
   7( 0) :     0.903483 a.u.    24.585 eV
   8( 0) :     1.132427 a.u.    30.815 eV
   9( 0) :     2.150037 a.u.    58.505 eV
  10( 0) :     2.169308 a.u.    59.030 eV
  11( 0) :     2.169308 a.u.    59.030 eV
  12( 0) :     2.225296 a.u.    60.553 eV
  13( 0) :     2.225296 a.u.    60.553 eV
  14( 0) :     4.911877 a.u.   133.659 eV
  15( 0) :     4.999090 a.u.   136.032 eV
  16( 0) :     4.999090 a.u.   136.032 eV
  17( 0) :     7.262572 a.u.   197.625 eV
  18( 0) :     7.273328 a.u.   197.917 eV
  19( 0) :     7.273328 a.u.   197.917 eV
  20( 0) :     7.306281 a.u.   198.814 eV
  21( 0) :     7.306281 a.u.   198.814 eV
  22( 0) :     7.361964 a.u.   200.329 eV
  23( 0) :     7.361964 a.u.   200.329 eV
  24( 0) :     8.693286 a.u.   236.556 eV
  25( 0) :     8.720671 a.u.   237.302 eV
  26( 0) :     8.720671 a.u.   237.302 eV
  27( 0) :     8.800690 a.u.   239.479 eV
  28( 0) :     8.800690 a.u.   239.479 eV
  29( 0) :     9.476783 a.u.   257.876 eV
-------
TIMINGS
-------

Total SCF time: 0 days 0 hours 0 min 0 sec 

Total time                  ....       0.032 sec
Sum of individual times     ....       0.030 sec  ( 92.7%)

SCF preparation             ....       0.019 sec  ( 60.9%)
Fock matrix formation       ....       0.004 sec  ( 11.8%)
  Startup                   ....       0.000 sec  (  3.5% of F)
  RI-JK                     ....       0.003 sec  ( 82.0% of F)
Diagonalization             ....       0.000 sec  (  0.0%)
Density matrix formation    ....       0.000 sec  (  0.8%)
Total Energy calculation    ....       0.000 sec  (  0.2%)
Population analysis         ....       0.004 sec  ( 12.7%)
Orbital Transformation      ....       0.001 sec  (  2.1%)
Orbital Orthonormalization  ....       0.000 sec  (  0.0%)
DIIS solution               ....       0.000 sec  (  1.1%)
SOSCF solution              ....       0.001 sec  (  2.8%)
Finished LeanSCF after   0.0 sec

Maximum memory used throughout the entire LEANSCF-calculation: 4.8 MB

------------------------------------------------------------------------------
                         ORCA PROPERTY INTEGRAL CALCULATIONS
------------------------------------------------------------------------------

GBWName                                   ... /home/ubuntu/Shiwei/qm9_reaction_eng/qm9_orca_work/qm9_orca_work_elem/f/f_ccsdt_ccpvtz.gbw
Number of atoms                           ...      1
Number of basis functions                 ...     36
Max core memory                           ...   8000 MB

Dipole integrals                          ... YES
Quadrupole integrals                      ...  NO
Linear momentum integrals                 ... YES
Angular momentum integrals                ... YES
Higher moments length integrals           ...  NO
Higher moments velocity integrals         ...  NO
Kinetic energy integrals                  ...  NO
GIAO right hand sides                     ...  NO
GIAO dipole derivative integrals          ...  NO
SOC integrals                             ...  NO
EPR diamagnetic integrals (GIAO)          ...  NO
EPR gauge integrals                       ...  NO
Field gradient integrals                  ...  NO (   0 nuclei)
Spin-dipole/Fermi contact integrals       ...  NO (   0 nuclei)
Contact density integrals                 ...  NO (   0 nuclei)
Nucleus-orbit integrals                   ...  NO (   0 nuclei)
Geometric perturbations                   ...  NO (   1 nuclei)

Choice of electric origin   ... Center of mass
Position of electric origin ... (  0.0000,  0.0000,  0.0000) 
Choice of magnetic origin   ... GIAO
Position of magnetic origin ... (  0.0000,  0.0000,  0.0000) 

Calculating integrals                     ... Electric Dipole (Length)     done (  0.0 sec)
Calculating integrals                     ... Linear Momentum              done (  0.0 sec)
Calculating integrals                     ... Angular Momentum  (ElOri)    done (  0.0 sec)

Property integrals calculated in   0.0 sec

Maximum memory used throughout the entire PROPINT-calculation: 7.0 MB
------------------------------------------------------------------------------
                           ORCA ORBITAL LOCALIZATION
------------------------------------------------------------------------------

Input orbitals are from                  ... /home/ubuntu/Shiwei/qm9_reaction_eng/qm9_orca_work/qm9_orca_work_elem/f/f_ccsdt_ccpvtz.gbw
Output orbitals are to                   ... /home/ubuntu/Shiwei/qm9_reaction_eng/qm9_orca_work/qm9_orca_work_elem/f/f_ccsdt_ccpvtz.loc
Max. number of iterations                ... 128
Localizations seeded randomly            ... on
Convergence tolerance                    ... 1.000e-06
Threshold for strong local MOs           ... 9.500e-01
Threshold for bond MOs                   ... 8.500e-01
Operator                                 ... 0
Orbital range for localization           ... 1 to 4
Localization criterion                   ... FOSTER-BOYS (AUGMENTED HESSIAN)
Doing the dipole integrals     ... o.k.
Initial value of the localization sum :     0.000000
ITERATION   0 : L=    0.9758042893 DL=  9.76e-01 (AVERGE_DL)=    0.4032791195 
ITERATION   1 : L=    1.0043014371 DL=  2.85e-02 (AVERGE_DL)=    0.0689167951 
ITERATION   2 : L=    1.0060800240 DL=  1.78e-03 (AVERGE_DL)=    0.0172171762 
ITERATION   3 : L=    1.0061925033 DL=  1.12e-04 (AVERGE_DL)=    0.0043297286 
ITERATION   4 : L=    1.0061993503 DL=  6.85e-06 (AVERGE_DL)=    0.0010682522 
ITERATION   5 : L=    1.0061999336 DL=  5.83e-07 (AVERGE_DL)=    0.0003117780 
LOCALIZATION SUM CONVERGED

------------------------------------------------------
AUGMENTED HESSIAN OPTIMIZATION OF FOSTER-BOYS ORBITALS
------------------------------------------------------

Spin operator:           0
Orbital window:          1 to 4
Number of iterations:    128
Gradient tolerance:      1.000e-06
Number of pairs:         6
Davidson threshold:      2000
Diagonalization method:  LAPACK
Iter:    0   L: 1.0061999336   Grad. norm: 4.582750e-04
   *** Detected a saddle point. ***
       Augmented Hessian eigenvalues:  6.83e-04  4.51e-04 -2.56e-05 -1.52e-04 ... 
Iter:    1   L: 1.0062364087   Grad. norm: 7.525646e-03
Iter:    2   L: 1.0062656353   Grad. norm: 1.174830e-02
Iter:    3   L: 1.0063086411   Grad. norm: 3.103818e-03
Iter:    4   L: 1.0063106224   Grad. norm: 3.927726e-05
   *** Likely close to a maximum now. ***
       Augmented Hessian eigenvalues:  1.02e-08  2.47e-09 -5.97e-04 -6.09e-04 ... 
Iter:    5   L: 1.0063106275   Grad. norm: 1.012668e-06
Iter:    6   L: 1.0063106275   Grad. norm: 4.649132e-11
LOCALIZATION HAS CONVERGED.

Eigenvalues of the Hessian:
  0  1.065e-15
  1 -6.012e-04
  2 -6.012e-04
  3 -2.616e+00
  4 -2.616e+00
  5 -2.820e+00


--------------------------------------------------------------------------------
                    LOCALIZED MOLECULAR ORBITAL COMPOSITIONS
--------------------------------------------------------------------------------

The Mulliken populations for each LMO on each atom are computed
The LMO`s will be ordered according to atom index and type
  (A) Strongly localized MO`s have populations of >=0.950 on one atom
  (B) Two center bond orbitals have populations of >=0.850 on two atoms
  (C) Other MO`s are considered to be `delocalized`

FOUND  -   4 strongly local MO`s
       -   0 two center bond MO`s
       -   0 significantly delocalized MO`s

Rather strongly localized orbitals:
MO   4:   0F  -   1.000000
MO   3:   0F  -   1.000000
MO   2:   0F  -   1.000000
MO   1:   0F  -   1.000000
Localized MO's were stored in: /home/ubuntu/Shiwei/qm9_reaction_eng/qm9_orca_work/qm9_orca_work_elem/f/f_ccsdt_ccpvtz.loc
------------------------------------------------------------------------------
                           ORCA ORBITAL LOCALIZATION
------------------------------------------------------------------------------

Input orbitals are from                  ... /home/ubuntu/Shiwei/qm9_reaction_eng/qm9_orca_work/qm9_orca_work_elem/f/f_ccsdt_ccpvtz.loc
Output orbitals are to                   ... /home/ubuntu/Shiwei/qm9_reaction_eng/qm9_orca_work/qm9_orca_work_elem/f/f_ccsdt_ccpvtz.loc
Max. number of iterations                ... 128
Localizations seeded randomly            ... on
Convergence tolerance                    ... 1.000e-06
Threshold for strong local MOs           ... 9.500e-01
Threshold for bond MOs                   ... 8.500e-01
Operator                                 ... 1
Orbital range for localization           ... 1 to 3
Localization criterion                   ... FOSTER-BOYS (AUGMENTED HESSIAN)
Doing the dipole integrals     ... o.k.
Initial value of the localization sum :     0.000000
ITERATION   0 : L=    0.9452405590 DL=  9.45e-01 (AVERGE_DL)=    0.5613200391 
ITERATION   1 : L=    0.9600099427 DL=  1.48e-02 (AVERGE_DL)=    0.0701650049 
ITERATION   2 : L=    0.9602407143 DL=  2.31e-04 (AVERGE_DL)=    0.0087706256 
ITERATION   3 : L=    0.9602443202 DL=  3.61e-06 (AVERGE_DL)=    0.0010963282 
ITERATION   4 : L=    0.9602443765 DL=  5.63e-08 (AVERGE_DL)=    0.0001370410 
LOCALIZATION SUM CONVERGED

------------------------------------------------------
AUGMENTED HESSIAN OPTIMIZATION OF FOSTER-BOYS ORBITALS
------------------------------------------------------

Spin operator:           1
Orbital window:          1 to 3
Number of iterations:    128
Gradient tolerance:      1.000e-06
Number of pairs:         3
Davidson threshold:      2000
Diagonalization method:  LAPACK
Iter:    0   L: 0.9602443765   Grad. norm: 8.288390e-05
   *** Likely close to a maximum now. ***
       Augmented Hessian eigenvalues:  1.79e-09  4.47e-10 -3.84e+00 -3.84e+00
Iter:    1   L: 0.9602443774   Grad. norm: 1.897352e-09
LOCALIZATION HAS CONVERGED.

Eigenvalues of the Hessian:
  0 -3.192e-15
  1 -3.841e+00
  2 -3.841e+00


--------------------------------------------------------------------------------
                    LOCALIZED MOLECULAR ORBITAL COMPOSITIONS
--------------------------------------------------------------------------------

The Mulliken populations for each LMO on each atom are computed
The LMO`s will be ordered according to atom index and type
  (A) Strongly localized MO`s have populations of >=0.950 on one atom
  (B) Two center bond orbitals have populations of >=0.850 on two atoms
  (C) Other MO`s are considered to be `delocalized`

FOUND  -   3 strongly local MO`s
       -   0 two center bond MO`s
       -   0 significantly delocalized MO`s

Rather strongly localized orbitals:
MO   3:   0F  -   1.000000
MO   2:   0F  -   1.000000
MO   1:   0F  -   1.000000
Localized MO's were stored in: /home/ubuntu/Shiwei/qm9_reaction_eng/qm9_orca_work/qm9_orca_work_elem/f/f_ccsdt_ccpvtz.loc
Warning: The program was called with UseRHFInts=true. This is deprecated now and will be ignored - sorry!
         your calculation will be ok, but may produce a slightly different result from earlier ORCA versions
Warning: The code was about to set UseRHFInts to true, but this feature is now deprecated


--------------------------------------------------------------------------------
                             ORCA-MATRIX DRIVEN CI
--------------------------------------------------------------------------------


Wavefunction type
-----------------
Correlation treatment                      ...      CCSD     
Single excitations                         ... ON
Orbital optimization                       ... OFF
Calculation of Z vector                    ... OFF
Calculation of Brueckner orbitals          ... OFF
Perturbative triple excitations            ... ON
Calculation of F12 correction              ... OFF
Frozen core treatment                      ... chemical core (2 el)
Reference Wavefunction                     ... UHF
  Alpha-MOs occ    :     1 ...    4 (  4 MO's/  4 electrons)
  Beta-MOs occ     :     1 ...    3 (  3 MO's/  3 electrons)
  Alpha-MOs virt   :     5 ...   29 ( 25 MO's              )
  Beta-MOs virt    :     4 ...   29 ( 26 MO's              )
  Quasi restricted orbitals will be used (this is similar to a ROHF determinant)
Number of AO's                             ...     30
Number of electrons                        ...      9
Number of correlated electrons             ...      7

Algorithmic settings
--------------------
Integral transformation                    ... All integrals via the RI transformation
K(C) Formation                             ... RI-DLPNO
   PNO-Integral Storage                    ... ON DISK
   PNO occupation number cut-off           ... 3.330e-07
   Singles PNO occupation number cut-off   ... 9.990e-09
   PNO Mulliken prescreening cut-off       ... 1.000e-03
   Domain cut-off (Mulliken population)    ... 1.000e-03
   PNO Normalization                       ...    1
Maximum number of iterations               ...        50
Convergence tolerance (max. residuum)      ... 2.500e-05
Level shift for amplitude update           ... 2.000e-01
Maximum number of DIIS vectors             ...         7
DIIS turned on at iteration                ...         0
Damping before turning on DIIS             ...     0.500
Damping after turning on DIIS              ...     0.000
Pair specific amplitude update             ... OFF
Natural orbital iterations                 ... OFF
Perturbative natural orbital generation    ... OFF
Printlevel                                 ... 4

Singles Fock matrix elements calculated using PNOs.

Memory handling:
----------------
Maximum memory for working arrays          ...   8000 MB
Data storage in matrix containers          ... UNCOMPRESSED
Data type for integral storage             ... DOUBLE
In-Core Storage of quantities:
   Amplitudes+Sigma Vector      ... NO
   J+K operators                ... NO
   DIIS vectors                 ... NO
   3-external integrals         ... NO
   4-external integrals         ... NO


Initializing the integral package          ... done
Localizing the valence QROs
------------------------------------------------------------------------------
                           ORCA ORBITAL LOCALIZATION
------------------------------------------------------------------------------

Input orbitals are from                  ... /home/ubuntu/Shiwei/qm9_reaction_eng/qm9_orca_work/qm9_orca_work_elem/f/f_ccsdt_ccpvtz.qro
Output orbitals are to                   ... /home/ubuntu/Shiwei/qm9_reaction_eng/qm9_orca_work/qm9_orca_work_elem/f/f_ccsdt_ccpvtz.loc
Max. number of iterations                ... 128
Localizations seeded randomly            ... off
Convergence tolerance                    ... 1.000e-06
Using relative localization threshhold   ... 1.000e-08
Threshold for strong local MOs           ... 9.500e-01
Threshold for bond MOs                   ... 8.500e-01
Operator                                 ... 0
Orbital range for localization           ... 1 to 3
Localization criterion                   ... FOSTER-BOYS (AUGMENTED HESSIAN)
Doing the dipole integrals     ... o.k.
Initial value of the localization sum :     0.000000
ITERATION   0 : L=    0.9070560012 DL=  9.07e-01 (AVERGE_DL)=    0.5498654384 
ITERATION   1 : L=    0.9212287512 DL=  1.42e-02 (AVERGE_DL)=    0.0687331798 
ITERATION   2 : L=    0.9214502004 DL=  2.21e-04 (AVERGE_DL)=    0.0085916475 
ITERATION   3 : L=    0.9214536606 DL=  3.46e-06 (AVERGE_DL)=    0.0010739559 
ITERATION   4 : L=    0.9214537146 DL=  5.41e-08 (AVERGE_DL)=    0.0001342445 
LOCALIZATION SUM CONVERGED

------------------------------------------------------
AUGMENTED HESSIAN OPTIMIZATION OF FOSTER-BOYS ORBITALS
------------------------------------------------------

Spin operator:           0
Orbital window:          1 to 3
Number of iterations:    128
Gradient tolerance:      1.000e-06
Number of pairs:         3
Davidson threshold:      2000
Diagonalization method:  LAPACK
Iter:    0   L: 0.9214537146   Grad. norm: 7.953567e-05
   *** Likely close to a maximum now. ***
       Augmented Hessian eigenvalues:  1.72e-09  4.29e-10 -3.69e+00 -3.69e+00
Iter:    1   L: 0.9214537155   Grad. norm: 1.820705e-09
LOCALIZATION HAS CONVERGED.

Eigenvalues of the Hessian:
  0 -1.693e-16
  1 -3.686e+00
  2 -3.686e+00


--------------------------------------------------------------------------------
                    LOCALIZED MOLECULAR ORBITAL COMPOSITIONS
--------------------------------------------------------------------------------

The Mulliken populations for each LMO on each atom are computed
The LMO`s will be ordered according to atom index and type
  (A) Strongly localized MO`s have populations of >=0.950 on one atom
  (B) Two center bond orbitals have populations of >=0.850 on two atoms
  (C) Other MO`s are considered to be `delocalized`

FOUND  -   3 strongly local MO`s
       -   0 two center bond MO`s
       -   0 significantly delocalized MO`s

Rather strongly localized orbitals:
MO   3:   0F  -   1.000000
MO   2:   0F  -   1.000000
MO   1:   0F  -   1.000000
Localized MO's were stored in: /home/ubuntu/Shiwei/qm9_reaction_eng/qm9_orca_work/qm9_orca_work_elem/f/f_ccsdt_ccpvtz.loc

------------------------------------------------------------------------------
                           ORCA ORBITAL LOCALIZATION
------------------------------------------------------------------------------

Input orbitals are from                  ... /home/ubuntu/Shiwei/qm9_reaction_eng/qm9_orca_work/qm9_orca_work_elem/f/f_ccsdt_ccpvtz.loc
Output orbitals are to                   ... /home/ubuntu/Shiwei/qm9_reaction_eng/qm9_orca_work/qm9_orca_work_elem/f/f_ccsdt_ccpvtz.loc
Max. number of iterations                ... 128
Localizations seeded randomly            ... off
Convergence tolerance                    ... 1.000e-06
Using relative localization threshhold   ... 1.000e-08
Threshold for strong local MOs           ... 9.500e-01
Threshold for bond MOs                   ... 8.500e-01
Operator                                 ... 0
Orbital range for localization           ... 4 to 4
Localization criterion                   ... FOSTER-BOYS (AUGMENTED HESSIAN)
Doing the dipole integrals     ... o.k.

ORCA_LOC: ONLY ONE ORBITAL - SKIPPING LOCALIZATION


--------------------------------------------------------------------------------
                    LOCALIZED MOLECULAR ORBITAL COMPOSITIONS
--------------------------------------------------------------------------------

The Mulliken populations for each LMO on each atom are computed
The LMO`s will be ordered according to atom index and type
  (A) Strongly localized MO`s have populations of >=0.950 on one atom
  (B) Two center bond orbitals have populations of >=0.850 on two atoms
  (C) Other MO`s are considered to be `delocalized`

FOUND  -   1 strongly local MO`s
       -   0 two center bond MO`s
       -   0 significantly delocalized MO`s

Rather strongly localized orbitals:
MO   4:   0F  -   1.000000
Localized MO's were stored in: /home/ubuntu/Shiwei/qm9_reaction_eng/qm9_orca_work/qm9_orca_work_elem/f/f_ccsdt_ccpvtz.loc

Localizing the core orbitals
------------------------------------------------------------------------------
                           ORCA ORBITAL LOCALIZATION
------------------------------------------------------------------------------

Input orbitals are from                  ... /home/ubuntu/Shiwei/qm9_reaction_eng/qm9_orca_work/qm9_orca_work_elem/f/f_ccsdt_ccpvtz.loc
Output orbitals are to                   ... /home/ubuntu/Shiwei/qm9_reaction_eng/qm9_orca_work/qm9_orca_work_elem/f/f_ccsdt_ccpvtz.loc
Max. number of iterations                ... 128
Localizations seeded randomly            ... off
Convergence tolerance                    ... 1.000e-06
Using relative localization threshhold   ... 1.000e-08
Threshold for strong local MOs           ... 9.500e-01
Threshold for bond MOs                   ... 8.500e-01
Operator                                 ... 0
Orbital range for localization           ... 0 to 0
Localization criterion                   ... FOSTER-BOYS (AUGMENTED HESSIAN)
Doing the dipole integrals     ... o.k.

ORCA_LOC: ONLY ONE ORBITAL - SKIPPING LOCALIZATION


--------------------------------------------------------------------------------
                    LOCALIZED MOLECULAR ORBITAL COMPOSITIONS
--------------------------------------------------------------------------------

The Mulliken populations for each LMO on each atom are computed
The LMO`s will be ordered according to atom index and type
  (A) Strongly localized MO`s have populations of >=0.950 on one atom
  (B) Two center bond orbitals have populations of >=0.850 on two atoms
  (C) Other MO`s are considered to be `delocalized`

FOUND  -   1 strongly local MO`s
       -   0 two center bond MO`s
       -   0 significantly delocalized MO`s

Rather strongly localized orbitals:
MO   0:   0F  -   1.000000
Localized MO's were stored in: /home/ubuntu/Shiwei/qm9_reaction_eng/qm9_orca_work/qm9_orca_work_elem/f/f_ccsdt_ccpvtz.loc

Re-Reading QRO orbitals for the actual calculation
  ... duplicating orbitals and energies 
  ... adjusting occupation numbers
Warning: reference  - re-canonicalizations have been set to INT 1 VIRT 1
Warning: internal orbitals are localized - no re-canonicalization of internal orbitals
Warning: UsePNO is turned on - no re-canonicalization of internal and virtual orbitals
Fock densities were made 

--------------
DLPNO SETTINGS
--------------

TCutMKN:           1.000e-03
TCutPAO:           1.000e-03
TCutPNO:           3.330e-07
TCutPNOSingles:    9.990e-09
TCutPAOExt:        1.000e-01
TCutPairs:         1.000e-06
TCutPre:           1.000e-08
TCutDOij:          1.000e-05
PAO overlap thresh 1.000e-08
Number of singly-occupied orbitals: 1
TCutTNO:           1.000e-09
TCutMP2Pairs:      1.000e-07
TCutDOStrong:      2.000e-02
TCutDOWeak:        4.000e-02
TCutMKNStrong:     1.000e-02
TCutMKNWeak:       1.000e-01
NTCutTNO:          1
Using PNOs for Singles Fock computation
--------------------------
Dim 30, Dim + NT + NS 31
Constructing RI-JK Fock for ROHF like references using UHF and RHF codes!

--------------------------
UNRESTRICTED FOCK OPERATOR
--------------------------


--------------------------
CLOSED-SHELL FOCK OPERATOR
--------------------------

Calculating differential overlap integrals (occ,PAO) ... ok
 >> Construction of the PNO with the Koopmans (K)-matrix << 
Entering the RI transformation section

-----------------
RI-TRANSFORMATION (AUX index driven)
-----------------

Dimension of the orbital-basis         ... 30
Dimension of the aux-basis             ... 81
Transformation of internal MOs         ...    4-   4
Number Format for Storage              ... Double (8 Byte)
Integral mode                          ... Direct

First Phase: integral generation and transformation of MO indices
  Aux angular momentum 0               ... done (    0.000 sec)
  Aux angular momentum 1               ... done (    0.000 sec)
  Aux angular momentum 2               ... done (    0.000 sec)
  Aux angular momentum 3               ... done (    0.000 sec)
  Aux angular momentum 4               ... done (    0.000 sec)
Closing buffer VIJ ( 0.00 GB; CompressionRatio= 0.40)
  Phase 1 completed in     0.027 sec
Second Phase: sorting and transformation of aux index

IJ-Transformation
Memory available                       ... 8000 MB 
Max. # MO pairs treated in a batch     ... 1    
# of internal orbitals                 ... 1
# batches for internal orbitals        ... 1
Closing buffer IJV ( 0.00 GB; CompressionRatio= 0.98)
(ij|v) transformation done in     0.000 sec

  Phase 2 completed in     0.000 sec
RI-Integral transformation completed in     0.027 sec

-----------------------
RI-FORMATION OF (ij|kl)
-----------------------

Max core memory to be used            ... 8000 MB
Memory needed per MO pair             ...   0.0 MB
# of MO pairs included in trafo       ... 1
# of MO pairs treated in a batch      ... 1
# of batches needed                   ... 1
Data format used                      ... DOUBLE
 done (    0.000 sec)
Closing buffer JIJ ( 0.00 GB; CompressionRatio= 0.40)
(ij|kl) transformation completed in     0.000 sec
     ... leaving the RI transformation section
 >> 4-active ERIs are generated & stored in-core fast memory 
 >> End construction..
F12 correction will NOT be calculated
 >>>>>>>>>>>>>>>>>>>>>>>>>>>>>>>>>>>>> 
       Dipole-based Prescreening       
 <<<<<<<<<<<<<<<<<<<<<<<<<<<<<<<<<<<<< 
Threshold for domain construction in prescreening:
   TCutDO    ...     1.0e-02
--------------------------
ELECTRON PAIR PRESCREENING
--------------------------

done (average of    0 OSVs/MO)
PAO based multipole pair screening          .... used
   TCutDOij = 1.000000e-05
   TCutPre  = 1.000000e-08
 done

sum of pair energies estimated for screened out pairs ...       0.000000000000 Eh
Timings for the prescreening procedure:
  Maps                          ...        0.000 sec
  nonredundant PAO construction ...        0.001 sec
  Dipole prescreening           ...        0.000 sec
  Total:                        ...        0.001 sec
                                                           
  __   __        __   ___     __        ___  __   __       
 /  ` |__) |  | |  \ |__     / _` |  | |__  /__` /__`     
 \__, |  \ \__/ |__/ |___    \__> \__/ |___ .__/ .__/ 
                                                           

Parameters for the crude guess:
   TScaleDOMP2PreScr   : 2.000e+00
   TScaleMKNMP2PreScr  : 1.000e+01
   TScalePNOMP2PreScr  : 1.000e+00
   TScalePairsMP2PreScr: 1.000e+00
   PAO overlap thresh    1.000e-08
Thresholds for map construction and integral transformation for crude MP2:
   TCutMKN                    ...     1.0e-02
   TCutDO                     ...     2.0e-02
   TCutPairs                  ...     1.0e-06
   TCutPairs_CrudeMP2         ...     1.0e-06
   TCutPNO_CrudeMP2           ...     3.3e-07
   TCutPNOSingles_CrudeMP2    ...     1.0e-08

CRUDE: Average # of AOs per PAO                   ...    30.0
CRUDE: Average # of atoms per PAO                 ...     1.0
CRUDE: Average # of atoms per a pair domain       ...    1.00
CRUDE: Average # of atoms per AUX domain          ...    1.00
CRUDE: Average # of atoms per a pair AUX domain   ...    1.00

 * Extended Maps .. 
CRUDE: Average # of PAOs (Atoms) per Occ          ...     1.0
CRUDE: Average # of PAOs (AOs) per Occ            ...    31.0

 * Trafo Maps .. 
CRUDE: Average # of PAOs (Atoms) per Occ (Trafo)  ...     1.0
CRUDE: Average # of PAOs (AOs) per Occ (Trafo)    ...    31.0
CRUDE: Average # of AUX (Atoms) per Occ (Trafo)   ...     1.0
CRUDE: Average # of AUX (AOs) per Occ (Trafo)     ...    81.0

ok
Calling local trafo                  ...--------------------------------
LOCAL RI TRANSFORMATION (IAVPAO)
--------------------------------

Orbital window:       1 to 4
Number of PAOs:      31
Basis functions:     30 (10 shells)
Aux. functions:      81 (23 shells)
Use SHARK:           on
Have SHARK:         yes

Processing maps (0.0 sec)
Average map sizes:
   Aux shells -> MOs               4.0
   Aux shells -> PAOs             31.0
   MOs        -> AO shells        10.0
   PAOs       -> AO shells        10.0

Calculating integrals (0.0 sec, 0.078 MB)
Sorting integrals (0.0 sec, 0.077 MB)
Total time for the integral transformation: 0.0 sec
ok (   0.0 sec)

-----------------------------------------
   _  _______   __    ___  _  ______     
  / |/ / __/ | / /___/ _ \/ |/ / __ \  
 /    / _/ | |/ /___/ ___/    / /_/ /    
/_/|_/___/ |___/   /_/  /_/|_/\____/    
                                         
                for open-shell molecules 
-----------------------------------------


 ==> UMP guess in NEV-PNO space 

Truncation parameters                       .... 
    PAOOverlapThresh     =        1.000e-08
Pair selection                          .... not used
    TCutPairs            =        1.000e-06
    TCutMKN              =        1.000e-02
    TCutDO               =        1.000e-02
    TCutCMO              =        1.000e-03
    TCutCPAO             =        1.000e-03
    TCutPNO              =        3.330e-07
    TScaleTCutPNO_SS     =        1.000e+00
    TScaleTCutPNO_SD     =        1.000e+00
    TScalePNO_Core       =        1.000e-02
    TCutDO_Crude         =        2.000e-02
    TCutMKN_Crude        =        1.000e-02
    TCutPairs_Crude      =        1.000e-06
    TCutPNO_Crude        =        3.330e-07
    TCutCMO              =        1.000e-03
    TCutCPAO             =        1.000e-03
Spin component scaling in ijab excitation            .... not used

Average number of atoms per AUX Domain:
   Single domains:    1.00
   Pair domains:      1.00
Average number of atoms per PAO Domain:
   Single domains:    1.00
   Pair domains:      1.00
Formation of guess energy and open-shell PNO.

NEV-PNO operators..
  E(ij->ab)
  E(ip->ab)
  E(pq->ra)
  E(ip->qr)
  E(ip->aq) and E(ip->qa)

 Norm of Semi-Internal Fock Operators ...   0.0000406529
  ==> Semi-internal excitations detected 

   .... Finished loop over pairs

                       ===========================
                         13 OF   13 PAIRS ARE KEPT CC PAIRS
                          0 OF   13 PAIRS ARE KEPT PT2 PAIRS
                          0 OF   13 PAIRS ARE SKIPPED
                       ===========================

 Initial PAO correlation energy (all pairs)    ...  -0.2027024303 Eh
 Energy constituents in PAO basis (Eh):
  | Vijab(+0) ...  -0.1305994383
  | Viab (-1) ...  -0.0479919234
  | Va   (-1) ...  -0.0000115554
  | Vija (+1) ...  -0.0124339130
  | Via  (+0) ...  -0.0116656002
 Initial PNO correlation energy                ...  -0.2003077507 Eh
 Energy constituents in PNO basis (Eh):
  | Vijab(+0) ...  -0.1305944856 (err=  0.0000049527)
  | Viab (-1) ...  -0.0456042313 (err=  0.0023876922)
  | Va   (-1) ...  -0.0000115554 (err=  0.0000000000)
  | Vija (+1) ...  -0.0124318783 (err=  0.0000020347)
  | Via  (+0) ...  -0.0116656002 (err=  0.0000000000)
 Sum of total truncation errors ...   0.0023946795 Eh
  | Pair screening ...   0.0000000000 Eh
  | PNO truncation ...   0.0023946795 Eh

 UMP2 correlation energy (PAO) ...  -0.1978906006
  | alpha-alpha ...  -0.0318711635 (NP_aa=    6)
  | alpha-beta  ...  -0.1506189995 (NP_ab=   12)
  | beta -beta  ...  -0.0154004376 (NP_bb=    3)
 UMP2 correlation energy (PNO) ...  -0.1954563074
  | alpha-alpha ...  -0.0302764821 (err=  0.0015946814, NP_aa=    6)
  | alpha-beta  ...  -0.1497809310 (err=  0.0008380685, NP_ab=   12)
  | beta -beta  ...  -0.0153988943 (err=  0.0000015433, NP_bb=    3)
 Sum of total UMP2 truncation errors ...   0.0024342932 Eh
  | Pair screening ...   0.0000000000 Eh
  | PNO truncation ...   0.0024342932 Eh
 Timing for NEV-PNO construction (sec.)
  | Intermediate construction  ..            0.001
  | Amplitude construction     ..            0.000
  | Total time                 ..            0.001
 Making pair pair interaction lists ...      
Pair pair interaction statistics
Nr. of pairs:                        13
Nr. of Singles:                       4
Average (per pair domain)               (Total):
Atoms:                              1.0 (1)
PNOs:                              24.2
PAOs:                   31.0 (31)
Aux functions:                     81.0 (81)
AuxAtoms:                           1.0 (1)
EXT1 basis functions:              31.0 (31)
Interacting Pairs:                 13.0 (13)
Interacting Pairs - Singles:        4.0 (4)
Average (per Single domain):
Atoms (Singles):                    1.0 (1)
PNOs (Singles):                    26.0
Basis functions (Singles):         31.0 (31)
Interacting Singles - Singles:      4.0 (4)
Interacting Singles - Pairs:       13.0 (13)
ok
                                                 
  ___         ___     __        ___  __   __     
 |__  | |\ | |__     / _` |  | |__  /__` /__`   
 |    | | \| |___    \__> \__/ |___ .__/ .__/ 
                                                 

Thresholds for map construction and integral transformation:
   TCutMKN   ...     1.0e-03
   TCutDO    ...     1.0e-02
   TCutCMO   ...     1.0e-03
   TCutCPAO  ...     1.0e-03

Thresholds for map construction and integral transformation for strong Triples:
   TCutMKN   ...     1.0e-02
   TCutDO    ...     2.0e-02
   TCutCMO   ...     1.0e-03
   TCutCPAO  ...     1.0e-03

Thresholds for map construction and integral transformation for weak Triples:
   TCutMKN   ...     1.0e-01
   TCutDO    ...     4.0e-02
   TCutCMO   ...     1.0e-03
   TCutCPAO  ...     1.0e-03

N(Atoms)=    1  N(Basis)=  30 N(Aux)=  81
MO to PAO maps        N(elements)=    4  Average functions=  31.0 shells=  10.0 atoms=   1.0
MO to AO maps         N(elements)=    4  Average functions=  30.0 shells=  10.0 atoms=   1.0
PAO to AO maps        N(elements)=   31  Average functions=  30.0 shells=  10.0 atoms=   1.0
MO to AUX maps        N(elements)=    4  Average functions=  81.0 shells=  23.0 atoms=   1.0
After extension:
Ext. MO to PAO maps   N(elements)=    4  Average functions=  31.0 shells=  10.0 atoms=   1.0
Ext. MO to AUX maps   N(elements)=    4  Average functions=  81.0 shells=  23.0 atoms=   1.0
--------------------------------
LOCAL RI TRANSFORMATION (IAVPAO)
--------------------------------

Orbital window:       1 to 4
Number of PAOs:      31
Basis functions:     30 (10 shells)
Aux. functions:      81 (23 shells)
Use SHARK:           on
Have SHARK:         yes

Processing maps (0.0 sec)
Average map sizes:
   Aux shells -> MOs               4.0
   Aux shells -> PAOs             31.0
   MOs        -> AO shells        10.0
   PAOs       -> AO shells        10.0

Calculating integrals (0.0 sec, 0.078 MB)
Sorting integrals (0.0 sec, 0.077 MB)
Total time for the integral transformation: 0.0 sec

 ==> UMP guess in NEV-PNO space 

Truncation parameters                       .... 
    PAOOverlapThresh     =        1.000e-08
Pair selection                          .... not used
    TCutPairs            =        1.000e-06
    TCutMKN              =        1.000e-03
    TCutDO               =        1.000e-02
    TCutCMO              =        1.000e-03
    TCutCPAO             =        1.000e-03
    TCutPNO              =        3.330e-07
    TScaleTCutPNO_SS     =        1.000e+00
    TScaleTCutPNO_SD     =        1.000e+00
    TScalePNO_Core       =        1.000e-02
    TScaleTCutPairs_Somo =        3.300e-01
    TScaleTCutPairs_Core =        1.000e+00
    TCutPairs_MP2        =        1.000e-07
    TCutCMO              =        1.000e-03
    TCutCPAO             =        1.000e-03
Spin component scaling in ijab excitation            .... not used

Average number of atoms per AUX Domain:
   Single domains:    1.00
   Pair domains:      1.00
Average number of atoms per PAO Domain:
   Single domains:    1.00
   Pair domains:      1.00
Formation of guess energy and open-shell PNO.

NEV-PNO operators..
  E(ij->ab)
  E(ip->ab)
  E(pq->ra)
  E(ip->qr)
  E(ip->aq) and E(ip->qa)

   .... Finished loop over pairs

  - Occupation number analysis for DOUBLES-pairs:

   Orbital Indices     % trace(D) 
  -----------------------------------
  (    1,     1): 100.000000000000 % (IJ)
  (    2,     1):  99.996824924302 % (IJ)
  (    2,     2): 100.000000000000 % (IJ)
  (    3,     1):  99.996824924302 % (IJ)
  (    3,     2):  99.996824924291 % (IJ)
  (    3,     3): 100.000000000000 % (IJ)
  (    4,     1): 100.000000000000 % (IP)
  (    4,     2): 100.000000000000 % (IP)
  (    4,     3): 100.000000000000 % (IP)
  (    4,     4): 100.000000000000 % (PQ)

  - Occupation number analysis for SINGLES-pairs:

   Orbital Index       % trace(D) 
  -----------------------------------
  (    1): 100.000000000000 % (IJ)
  (    2): 100.000000000000 % (IJ)
  (    3): 100.000000000000 % (IJ)
  (    4): 100.000000000000 % (IJ)

 PNO Occupation Number Statistics: 
  | Av. % of trace(Dij) retained        ...  99.998412462149
  | Av. % of trace(Dip) retained        ... 100.000000000000
  | Av. % of trace(Dpq) retained        ... 100.000000000000
  | sigma^2 in % of trace(Dij) retained ...   2.52e-06
  | sigma^2 in % of trace(Dip) retained ...   9.42e-28
  | sigma^2 in % of trace(Dpq) retained ...   0.00e+00
  | Av. % of trace(Di) retained         ... 100.000000000000
  | Av. % of trace(Dp) retained         ... 100.000000000000
  | sigma^2 in % of trace(Di) retained  ...   3.37e-28
  | sigma^2 in % of trace(Dp) retained  ...   0.00e+00
 Distributions of % trace(Dij) recovered:
  |       >= 99.9  ...     6 (100.0 % of all IJ-pairs)
 Distributions of % trace(Dip) recovered:
  |       >= 99.9  ...     3 (100.0 % of all IP-pairs)
 Distributions of % trace(Dpq) recovered:
  |       >= 99.9  ...     1 (100.0 % of all PQ-pairs)
 Distributions of % trace(Di) recovered :
  |       >= 99.9  ...     3 (100.0 % of all I-pairs )
 Distributions of % trace(Dp) recovered :
  |       >= 99.9  ...     1 (100.0 % of all P-pairs )

                       ===========================
                         13 OF   13 PAIRS ARE KEPT
                       ===========================

 Initial PAO correlation energy (all pairs)    ...  -0.2027024303 Eh
 Energy constituents in PAO basis (Eh):
  | Vijab(+0) ...  -0.1305994383
  | Viab (-1) ...  -0.0479919234
  | Va   (-1) ...  -0.0000115554
  | Vija (+1) ...  -0.0124339130
  | Via  (+0) ...  -0.0116656002
 Initial PNO correlation energy                ...  -0.2003077507 Eh
 Energy constituents in PNO basis (Eh):
  | Vijab(+0) ...  -0.1305944856 (err=  0.0000049527)
  | Viab (-1) ...  -0.0456042313 (err=  0.0023876922)
  | Va   (-1) ...  -0.0000115554 (err=  0.0000000000)
  | Vija (+1) ...  -0.0124318783 (err=  0.0000020347)
  | Via  (+0) ...  -0.0116656002 (err=  0.0000000000)
 Sum of total truncation errors ...   0.0023946795 Eh
  | Pair screening ...   0.0000000000 Eh
  | PNO truncation ...   0.0023946795 Eh

 UMP2 correlation energy (PAO) ...  -0.1978906006
  | alpha-alpha ...  -0.0318711635 (NP_aa=    6)
  | alpha-beta  ...  -0.1506189995 (NP_ab=   12)
  | beta -beta  ...  -0.0154004376 (NP_bb=    3)
 UMP2 correlation energy (PNO) ...  -0.1954563074
  | alpha-alpha ...  -0.0302764821 (err=  0.0015946814, NP_aa=    6)
  | alpha-beta  ...  -0.1497809310 (err=  0.0008380685, NP_ab=   12)
  | beta -beta  ...  -0.0153988943 (err=  0.0000015433, NP_bb=    3)
 Sum of total UMP2 truncation errors ...   0.0024342932 Eh
  | Pair screening ...   0.0000000000 Eh
  | PNO truncation ...   0.0024342932 Eh
 Timing for NEV-PNO construction (sec.)
  | Intermediate construction  ..            0.000
  | Amplitude construction     ..            0.000
  | Total time                 ..            0.000
 Making pair pair interaction lists ...      
Pair pair interaction statistics
Nr. of pairs:                        13
Nr. of Singles:                       4
Average (per pair domain)               (Total):
Atoms:                              1.0 (1)
PNOs:                              24.2
PAOs:                   31.0 (31)
Aux functions:                     81.0 (81)
AuxAtoms:                           1.0 (1)
EXT1 basis functions:              31.0 (31)
Interacting Pairs:                 13.0 (13)
Interacting Pairs - Singles:        4.0 (4)
Average (per Single domain):
Atoms (Singles):                    1.0 (1)
PNOs (Singles):                    26.0
Basis functions (Singles):         31.0 (31)
Interacting Singles - Singles:      4.0 (4)
Interacting Singles - Pairs:       13.0 (13)
ok
 Total size for 2-ext PNO integrals ...      0.1 MB
Checking the number of SOMO/SOMO doubles PNOs ...  No PNOs should be truncated!

--------------------------------
LOCAL RI TRANSFORMATION (VABPAO)
--------------------------------

Number of PAOs:      31
Basis functions:     30 (10 shells)
[...]
eaab 2 3 3     0.0000000000
eaab 3 0 0    -0.0001889848
eaab 3 0 1    -0.0000940634
eaab 3 0 2    -0.0000940634
eaab 3 0 3     0.0000000000
eaab 3 1 0    -0.0000940634
eaab 3 1 1    -0.0001889848
eaab 3 1 2    -0.0000940634
eaab 3 1 3     0.0000000000
eaab 3 2 0    -0.0000940634
eaab 3 2 1    -0.0000940634
eaab 3 2 2    -0.0001889848
eaab 3 2 3     0.0000000000
eaab 3 3 0     0.0000000000
eaab 3 3 1     0.0000000000
eaab 3 3 2     0.0000000000
eaab 3 3 3     0.0000000000
eabb 0 0 0     0.0000000000
eabb 0 0 1     0.0000000000
eabb 0 0 2     0.0000000000
eabb 0 0 3     0.0000000000
eabb 0 1 0    -0.0001304190
eabb 0 1 1     0.0000000000
eabb 0 1 2     0.0000000000
eabb 0 1 3     0.0000000000
eabb 0 2 0    -0.0001304190
eabb 0 2 1    -0.0000660554
eabb 0 2 2     0.0000000000
eabb 0 2 3     0.0000000000
eabb 0 3 0     0.0000000000
eabb 0 3 1     0.0000000000
eabb 0 3 2     0.0000000000
eabb 0 3 3     0.0000000000
eabb 1 0 0     0.0000000000
eabb 1 0 1     0.0000000000
eabb 1 0 2     0.0000000000
eabb 1 0 3     0.0000000000
eabb 1 1 0    -0.0001304190
eabb 1 1 1     0.0000000000
eabb 1 1 2     0.0000000000
eabb 1 1 3     0.0000000000
eabb 1 2 0    -0.0000660554
eabb 1 2 1    -0.0001304190
eabb 1 2 2     0.0000000000
eabb 1 2 3     0.0000000000
eabb 1 3 0     0.0000000000
eabb 1 3 1     0.0000000000
eabb 1 3 2     0.0000000000
eabb 1 3 3     0.0000000000
eabb 2 0 0     0.0000000000
eabb 2 0 1     0.0000000000
eabb 2 0 2     0.0000000000
eabb 2 0 3     0.0000000000
eabb 2 1 0    -0.0000660554
eabb 2 1 1     0.0000000000
eabb 2 1 2     0.0000000000
eabb 2 1 3     0.0000000000
eabb 2 2 0    -0.0001304190
eabb 2 2 1    -0.0001304190
eabb 2 2 2     0.0000000000
eabb 2 2 3     0.0000000000
eabb 2 3 0     0.0000000000
eabb 2 3 1     0.0000000000
eabb 2 3 2     0.0000000000
eabb 2 3 3     0.0000000000
eabb 3 0 0     0.0000000000
eabb 3 0 1     0.0000000000
eabb 3 0 2     0.0000000000
eabb 3 0 3     0.0000000000
eabb 3 1 0    -0.0001015048
eabb 3 1 1     0.0000000000
eabb 3 1 2     0.0000000000
eabb 3 1 3     0.0000000000
eabb 3 2 0    -0.0001015048
eabb 3 2 1    -0.0001015048
eabb 3 2 2     0.0000000000
eabb 3 2 3     0.0000000000
eabb 3 3 0     0.0000000000
eabb 3 3 1     0.0000000000
eabb 3 3 2     0.0000000000
eabb 3 3 3     0.0000000000
ebbb 0 0 0     0.0000000000
ebbb 0 0 1     0.0000000000
ebbb 0 0 2     0.0000000000
ebbb 0 0 3     0.0000000000
ebbb 0 1 0     0.0000000000
ebbb 0 1 1     0.0000000000
ebbb 0 1 2     0.0000000000
ebbb 0 1 3     0.0000000000
ebbb 0 2 0     0.0000000000
ebbb 0 2 1     0.0000000000
ebbb 0 2 2     0.0000000000
ebbb 0 2 3     0.0000000000
ebbb 0 3 0     0.0000000000
ebbb 0 3 1     0.0000000000
ebbb 0 3 2     0.0000000000
ebbb 0 3 3     0.0000000000
ebbb 1 0 0     0.0000000000
ebbb 1 0 1     0.0000000000
ebbb 1 0 2     0.0000000000
ebbb 1 0 3     0.0000000000
ebbb 1 1 0     0.0000000000
ebbb 1 1 1     0.0000000000
ebbb 1 1 2     0.0000000000
ebbb 1 1 3     0.0000000000
ebbb 1 2 0     0.0000000000
ebbb 1 2 1     0.0000000000
ebbb 1 2 2     0.0000000000
ebbb 1 2 3     0.0000000000
ebbb 1 3 0     0.0000000000
ebbb 1 3 1     0.0000000000
ebbb 1 3 2     0.0000000000
ebbb 1 3 3     0.0000000000
ebbb 2 0 0     0.0000000000
ebbb 2 0 1     0.0000000000
ebbb 2 0 2     0.0000000000
ebbb 2 0 3     0.0000000000
ebbb 2 1 0    -0.0000253299
ebbb 2 1 1     0.0000000000
ebbb 2 1 2     0.0000000000
ebbb 2 1 3     0.0000000000
ebbb 2 2 0     0.0000000000
ebbb 2 2 1     0.0000000000
ebbb 2 2 2     0.0000000000
ebbb 2 2 3     0.0000000000
ebbb 2 3 0     0.0000000000
ebbb 2 3 1     0.0000000000
ebbb 2 3 2     0.0000000000
ebbb 2 3 3     0.0000000000
ebbb 3 0 0     0.0000000000
ebbb 3 0 1     0.0000000000
ebbb 3 0 2     0.0000000000
ebbb 3 0 3     0.0000000000
ebbb 3 1 0     0.0000000000
ebbb 3 1 1     0.0000000000
ebbb 3 1 2     0.0000000000
ebbb 3 1 3     0.0000000000
ebbb 3 2 0     0.0000000000
ebbb 3 2 1     0.0000000000
ebbb 3 2 2     0.0000000000
ebbb 3 2 3     0.0000000000
ebbb 3 3 0     0.0000000000
ebbb 3 3 1     0.0000000000
ebbb 3 3 2     0.0000000000
ebbb 3 3 3     0.0000000000
E_DDD  -0.001920189987
E_SDD  -0.001537576623
E_SSD   0.000000000000
E_SSS   0.000000000000

Triples timings:
Total time                      ...     0.023 sec

Triples List generation         ...     0.000 sec
TNO generation                  ...     0.004 sec
Pair density generation         ...     0.000 sec
Look up tables                  ...     0.000 sec
Generating 3-index integrals    ...     0.008 sec
Make 4-ind.int. from 3-ind.int  ...     0.000 sec
Projecting amplitudes (D + S)   ...     0.003 sec
Sorting integrals for spin cases...     0.002 sec
Calculate W0/W1                 ...     0.004 sec
T0 Energy contr.(sum over a,b,c)...     0.002 sec

Everything after 3-index in T0  ...     0.015 sec

Energy contribution AAA         ...     0.001 sec
Energy contribution AAB         ...     0.004 sec
Energy contribution ABB         ...     0.003 sec
Energy contribution BBB         ...     0.000 sec
prep                ...     0.000 sec
makeTTNO            ...     0.002 sec
copyij              ...     0.000 sec
copyil              ...     0.000 sec
transposeij         ...     0.000 sec
newMatInDoubleProj  ...     0.000 sec
BlasInDoubleProj    ...     0.001 sec
ProjSingles         ...     0.000 sec
ProjDoubles         ...     0.002 sec
overall Doubles for projection      ... 291
used Doubles for projection         ... 291


Number of Triples   (0, 1, 2, 3 weak pairs; overall):     26       0       0       0  (    26)
Number of Atoms     (0, 1, 2, 3 weak pairs; overall):    1.0     0.0     0.0     0.0  (     1)
Number of PAOs      (0, 1, 2, 3 weak pairs; overall):   31.0     0.0     0.0     0.0  (    30)
Number of AuxFcns   (0, 1, 2, 3 weak pairs; overall):   81.0     0.0     0.0     0.0  (    81)
Number of TNOs (0, 1, 2, 3 weak pairs         ):   26.0     0.0     0.0     0.0
Aver. Number of NTNO, Atoms, PAOs, AuxFcns / Triples:     26    26.0     1.0    31.0    81.0
Load balancing information:
Total time                    ...     0.023 sec

Triples Correction (T)                     ...     -0.003457767
    alpha-alpha-alpha ... -0.000121133 (  3.5%)
    alpha-alpha-beta  ... -0.002026109 ( 58.6%)
    alpha-beta -beta  ... -0.001285195 ( 37.2%)
    beta -beta -beta  ... -0.000025330 (  0.7%)
Final correlation energy                   ...     -0.219112165
E(CCSD)                                    ...    -99.616567887
E(CCSD(T))                                 ...    -99.620025653

----------------------------
STATISTICS FOR PAIR-ENERGIES
----------------------------
(AB;    1,    3) UMP= -0.0076744945 UCC= -0.0083850468, ratio=1.09
(AB;    2,    3) UMP= -0.0076744945 UCC= -0.0083850468, ratio=1.09
(AB;    1,    2) UMP= -0.0076744945 UCC= -0.0083850468, ratio=1.09
(AA;    2,    1) UMP= -0.0043175582 UCC= -0.0043027535, ratio=1.00
(AB;    2,    1) UMP= -0.0076744945 UCC= -0.0083850468, ratio=1.09
(BB;    2,    1) UMP= -0.0051334792 UCC= -0.0049407274, ratio=0.96
(AA;    3,    2) UMP= -0.0043175582 UCC= -0.0043027535, ratio=1.00
(AB;    3,    2) UMP= -0.0076744945 UCC= -0.0083850468, ratio=1.09
(BB;    3,    2) UMP= -0.0051334792 UCC= -0.0049407274, ratio=0.96
(AA;    3,    1) UMP= -0.0043175582 UCC= -0.0043027535, ratio=1.00
(AB;    3,    1) UMP= -0.0076744945 UCC= -0.0083850468, ratio=1.09
(BB;    3,    1) UMP= -0.0051334792 UCC= -0.0049407274, ratio=0.96
(AA;    4,    1) UMP= -0.0063061630 UCC= -0.0057045458, ratio=0.90
(AB;    4,    1) UMP= -0.0119384562 UCC= -0.0124583516, ratio=1.04
(AA;    4,    3) UMP= -0.0063061630 UCC= -0.0057045458, ratio=0.90
(AB;    4,    3) UMP= -0.0119384562 UCC= -0.0124583516, ratio=1.04
(AA;    4,    2) UMP= -0.0063061630 UCC= -0.0057045458, ratio=0.90
(AB;    4,    2) UMP= -0.0119384562 UCC= -0.0124583516, ratio=1.04
(AB;    1,    1) UMP= -0.0229188881 UCC= -0.0256649462, ratio=1.12
(AB;    2,    2) UMP= -0.0229188881 UCC= -0.0256649462, ratio=1.12
(AB;    3,    3) UMP= -0.0229188881 UCC= -0.0256649462, ratio=1.12
Minimum, maximum and average ratios of UMP and CCSD pair-energies ... 0.90, 1.12, 1.03


--------------------------------------------------------------------------------
                                    TIMINGS
--------------------------------------------------------------------------------


Total execution time                   ...        0.874 sec

Localization of occupied MO's          ...        0.031 sec (  3.6%)
Fock Matrix Formation                  ...        0.003 sec (  0.3%)
Differential overlap integrals         ...        0.008 sec (  0.9%)
Organizing maps                        ...        0.000 sec (  0.0%)
RI 3-index integral generations        ...        0.146 sec ( 16.6%)
RI-PNO integral transformation         ...        0.043 sec (  4.9%)
Initial Guess                          ...        0.018 sec (  2.1%)
DIIS Solver                            ...        0.004 sec (  0.5%)
State Vector Update                    ...        0.000 sec (  0.0%)
Sigma-vector construction              ...        0.433 sec ( 49.5%)
  <D|H|D>(0-ext)                       ...        0.006 sec (  1.3% of sigma)
  <D|H|D>(2-ext)                       ...        0.037 sec (  8.4% of sigma)
  <D|H|D>(4-ext)                       ...        0.065 sec ( 15.1% of sigma)
  <D|H|D>(4-ext-corr)                  ...        0.193 sec ( 44.6% of sigma)
  CCSD doubles correction              ...        0.006 sec (  1.4% of sigma)
  <S|H|S>                              ...        0.006 sec (  1.4% of sigma)
  <S|H|D>(1-ext)                       ...        0.005 sec (  1.1% of sigma)
  <S|H|D>(3-ext)                       ...        0.007 sec (  1.7% of sigma)
  Fock-dressing                        ...        0.048 sec ( 11.0% of sigma)
  Singles amplitudes                   ...        0.001 sec (  0.3% of sigma)
  (ik|jl)-dressing                     ...        0.007 sec (  1.6% of sigma)
  (ij|ab),(ia|jb)-dressing             ...        0.039 sec (  9.1% of sigma)
Total Time for computing (T)           ...        0.023 sec (  2.7% of ALL)


Maximum memory used throughout the entire MDCI-calculation: 37.7 MB

-------------------------   --------------------
FINAL SINGLE POINT ENERGY       -99.620025653391
-------------------------   --------------------


------------------------------------------------------------------------------
                              ORCA PROPERTY CALCULATIONS
------------------------------------------------------------------------------

GBWName                                 ... /home/ubuntu/Shiwei/qm9_reaction_eng/qm9_orca_work/qm9_orca_work_elem/f/f_ccsdt_ccpvtz.gbw
Number of atoms                         ...      1
Number of basis functions               ...     36
Max core memory                         ...   8000 MB

Electric properties:
Dipole moment                           ... YES
Quadrupole moment                       ...  NO
Static polarizability (Dipole/Dipole)   ...  NO
Static polarizability (Dipole/Quad.)    ...  NO
Static polarizability (Quad./Quad.)     ...  NO
Static polarizability (Velocity)        ...  NO

Atomic electric properties:
Dipole moment                           ...  NO
Quadrupole moment                       ...  NO
Static polarizability                   ...  NO

Choice of electric origin               ... Center of mass
Position of electric origin             ...     0.000000     0.000000     0.000000

General magnetic properties:
Magnetizability                         ...  NO

EPR properties:
g-Tensor (aka g-matrix)                 ...  NO
Zero-Field splitting spin-orbit         ...  NO
Zero-field splitting spin-spin          ...  NO
Hyperfine couplings                     ...  NO (   0 nuclei)
Quadrupole couplings                    ...  NO (   0 nuclei)
Contact density                         ...  NO (   0 nuclei)

NMR properties:
Chemical shifts                         ...  NO (   0 nuclei)
Spin-rotation constants                 ...  NO (   0 nuclei)
Spin-spin couplings                     ...  NO (   0 nuclei,    0 pairs)

Choice of magnetic origin               ... GIAO
Position of magnetic origin             ...     0.000000     0.000000     0.000000

Properties with geometric perturbations:
SCF Hessian                             ...  NO
IR spectrum                             ...  NO
VCD spectrum                            ...  NO
X-ray spectroscopy properties:
SCF XES/XAS/RIXS spectra                ...  NO


-------------
DIPOLE MOMENT
-------------

Method             : SCF
Type of density    : Electron Density
Multiplicity       :   2
Irrep              :   0
Energy             :   -99.4055193147735565 Eh
Relativity type    : 
Basis              : AO
                                X                 Y                 Z
Electronic contribution:      0.000000000      -0.000000000      -0.000000000
Nuclear contribution   :      0.000000000       0.000000000       0.000000000
                        -----------------------------------------
Total Dipole Moment    :      0.000000000      -0.000000000      -0.000000000
                        -----------------------------------------
Magnitude (a.u.)       :      0.000000000
Magnitude (Debye)      :      0.000000000



--------------------
Rotational spectrum 
--------------------
 
Rotational constants in cm-1:             0.000000             0.000000             0.000000 
Rotational constants in MHz :             0.000000             0.000000             0.000000 

Dipole components along the rotational axes: 
x,y,z [a.u.] :     0.000000    -0.000000    -0.000000 
x,y,z [Debye]:     0.000000    -0.000000    -0.000000 

 

Dipole moment calculation done in   0.0 sec 

Maximum memory used throughout the entire PROP-calculation: 12.2 MB

--------------------------------
SUGGESTED CITATIONS FOR THIS RUN
--------------------------------

Below you find a list of papers that are relevant to this ORCA run
We neither can nor want to force you to cite these papers, but we appreciate if you do
You receive ORCA, which is the product of decades of hard work by many enthusiastic individuals, for free
The only thing we kindly ask in return is that you cite our papers,
We deeply appreciate it, if you show your appreciation for ORCA by not just citing the generic ORCA reference.

Please note that relegating all ORCA citations to the supporting information does *not* help us.
SI sections are not indexed - citations you put there will not count into any citation statistics
But we need these citations in order to attract the funding resources that allow us to do what we are doing

Therefore, if you are a happy ORCA user, please consider citing a few of the papers listed below in the main body of your paper

In addition to the list printed below, the program has created the file /home/ubuntu/Shiwei/qm9_reaction_eng/qm9_orca_work/qm9_orca_work_elem/f/f_ccsdt_ccpvtz.bibtex that contains the list in bibtex format
You can import this file easily into all common literature databanks and citation aid programs


List of essential papers. We consider these as the minimum necessary citations

  1. Neese,F.
     Software update: the ORCA program system, version 5.0
     WIRES Comput. Molec. Sci., 2022 12(1)e1606
     doi.org/10.1002/wcms.1606

List of papers to cite with high priority. The work reported in these papers was absolutely
necessary for this run to complete.
Our perspective: the developers of density functionals and basis sets usually get cited in chemistry papers
Good! But without the algorithms to do something with them, the functionals or basis sets would not do anything.
Hence, in our opinion, the algorithm design and method developments papers are equally worthy of getting cited

  1. Neese,F.
     An improvement of the resolution of the identity approximation for the formation of the Coulomb matrix
     J. Comp. Chem., 2003 24(14)1740-1747
     doi.org/10.1002/jcc.10318
  2. Kossmann,S.; Neese,F.
     Comparison of two efficient approximate Hartee-Fock approaches
     Chem. Phys. Lett., 2009 481 240-243
     doi.org/10.1016/j.cplett.2009.09.073
  3. Neese,F.; Hansen,A.; Liakos,D.G.
     Efficient and accurate approximations to the local coupled cluster singles doubles method using a truncated pair natural orbital basis
     J. Chem. Phys., 2009 131 064103
     doi.org/10.1063/1.3173827
  4. Neese,F.; Wennmohs,F.; Hansen,A.
     Efficient and accurate local approximations to coupled-electron pair approaches: An attempt to revive the pair natural orbital method
     J. Chem. Phys., 2009 130 114108
     doi.org/10.1063/1.3086717
  5. Riplinger,C.; Neese,F.
     An efficient and near linear scaling pair natural orbital based local coupled cluster method
     J. Chem. Phys., 2013 138(3)Art. No. 034106
     doi.org/10.1063/1.4773581
  6. Riplinger,C.; Sandhoefer,B.; Hansen,A.; Neese,F.
     Natural triple excitations in local coupled cluster calculations with pair natural orbitals
     J. Chem. Phys., 2013 139(13)Art. No. 134101
     doi.org/10.1063/1.4821834
  7. Riplinger,C.; Pinski,P.; Becker,U.; Valeev,E.F.; Neese,F.
     Sparse maps-A systematic infrastructure for reduced-scaling electronic structure methods. II. Linear scaling domain based pair natural orbital coupled cluster theory
     J. Chem. Phys., 2016 144 
     doi.org/10.1063/1.4939030
  8. Bistoni,G.; Riplinger,C.; Minenkov,Y.; Cavallo,L.; Auer,A.A.; Neese,F.
     Treating Subvalence Correlation Effects in Domain Based Pair Natural Orbital Coupled Cluster Calculations: An Out-of-the-Box Approach
     J. Theo. Comp. Chem., 2017 13 3220-3227
     doi.org/10.1021/acs.jctc.7b00352
  9. Saitow,M.; Becker,U.; Riplinger,C.; Valeev,E.; Neese,F.
     A new near-linear scaling, efficient and accurate, open-shell domain-based local pair natural orbital coupled cluster singles and doubles theory
     J. Chem. Phys., 2017 146 164105
 10. Neese,F.
     The SHARK Integral Generation and Digestion System
     J. Comp. Chem., 2022  1-16
     doi.org/10.1002/jcc.26942

List of suggested additional citations. These are papers that are important in the 'surrounding' of 
of this run, or papers that preceded the highly important papers. If you like your results we are grateful for a citation.

  1. Hansen,A.; Liakos,D.G.; Neese,F.
     Efficient and accurate local single reference correlation methods for high-spin open-shell molecules using pair natural orbitals
     J. Chem. Phys., 2011 135 214102
     doi.org/10.1063/1.3663855
  2. Neese,F.
     The ORCA program system
     WIRES Comput. Molec. Sci., 2012 2(1)73-78
     doi.org/10.1002/wcms.81
  3. Neese,F.
     Software update: the ORCA program system, version 4.0
     WIRES Comput. Molec. Sci., 2018 8(1)1-6
     doi.org/10.1002/wcms.1327
  4. Saitow,M.; Neese,F.
     Accurate spin-densities based on the domain-based local pair-natural orbital coupled-cluster theory
     J. Chem. Phys., 2018 149 034104
  5. Neese,F.; Wennmohs,F.; Becker,U.; Riplinger,C.
     The ORCA quantum chemistry program package
     J. Chem. Phys., 2020 152 Art. No. L224108
     doi.org/10.1063/5.0004608

List of optional additional citations

  1. Neese,F.
     Approximate second-order SCF convergence for spin unrestricted wavefunctions
     Chem. Phys. Lett., 2000 325(1-3)93-98
     doi.org/10.1016/s0009-2614(00)00662-x

Timings for individual modules:

Sum of individual times          ...        1.177 sec (=   0.020 min)
Startup calculation              ...        0.113 sec (=   0.002 min)   9.6 %
SCF iterations                   ...        0.083 sec (=   0.001 min)   7.1 %
Property integrals               ...        0.035 sec (=   0.001 min)   3.0 %
Property calculations            ...        0.046 sec (=   0.001 min)   3.9 %
MDCI module                      ...        0.897 sec (=   0.015 min)  76.2 %
Orbital localization             ...        0.003 sec (=   0.000 min)   0.3 %
                             ****ORCA TERMINATED NORMALLY****
TOTAL RUN TIME: 0 days 0 hours 0 minutes 1 seconds 230 msec
