
                                 *****************
                                 * O   R   C   A *
                                 *****************

                                            #,                                       
                                            ###                                      
                                            ####                                     
                                            #####                                    
                                            ######                                   
                                           ########,                                 
                                     ,,################,,,,,                         
                               ,,#################################,,                 
                          ,,##########################################,,             
                       ,#########################################, ''#####,          
                    ,#############################################,,   '####,        
                  ,##################################################,,,,####,       
                ,###########''''           ''''###############################       
              ,#####''   ,,,,##########,,,,          '''####'''          '####       
            ,##' ,,,,###########################,,,                        '##       
           ' ,,###''''                  '''############,,,                           
         ,,##''                                '''############,,,,        ,,,,,,###''
      ,#''                                            '''#######################'''  
     '                                                          ''''####''''         
             ,#######,   #######,   ,#######,      ##                                
            ,#'     '#,  ##    ##  ,#'     '#,    #''#        ,####,   ,####,        
            ##       ##  ##   ,#'  ##            #'  '#       #'       #'  '#        
            ##       ##  #######   ##           ,######,      #####,   #    #        
            '#,     ,#'  ##    ##  '#,     ,#' ,#      #,     #,   #   #,  ,#        
             '#######'   ##     ##  '#######'  #'      '#     '####' # '####'        



                #########################################################
                #                        -***-                          #
                #          Department of theory and spectroscopy        #
                #                                                       #
                #                      Frank Neese                      #
                #                                                       #
                #     Directorship, Architecture, Infrastructure        #
                #                    SHARK, DRIVERS                     #
                #        Core code/Algorithms in most modules           #
                #                                                       #
                #        Max Planck Institute fuer Kohlenforschung      #
                #                Kaiser Wilhelm Platz 1                 #
                #                 D-45470 Muelheim/Ruhr                 #
                #                      Germany                          #
                #                                                       #
                #                  All rights reserved                  #
                #                        -***-                          #
                #########################################################


                         Program Version 6.0.1  -  RELEASE   -


 With contributions from (in alphabetic order):
[Max-Planck-Institut fuer Kohlenforschung]                               
  Daniel Aravena         : Magnetic Suceptibility                        
  Michael Atanasov       : Ab Initio Ligand Field Theory (pilot matlab implementation)
  Alexander A. Auer      : GIAO ZORA, VPT2 properties, NMR spectrum      
  Ute Becker             : All parallelization in ORCA, NUMFREQ, NUMCALC 
  Giovanni Bistoni       : ED, misc. LED, open-shell LED, HFLD           
  Martin Brehm           : Molecular dynamics                            
  Dmytro Bykov           : pre 5.0 version of the SCF Hessian            
  Marcos Casanova-Páez   : Triplet and SCS-CIS(D). UHF-(DLPNO)-IP/EA/STEOM-CCSD. UHF-CVS-IP/STEOM-CCSD   
  Vijay G. Chilkuri      : MRCI spin determinant printing, contributions to CSF-ICE 
  Pauline Colinet        : FMM embedding                                 
  Dipayan Datta          : RHF DLPNO-CCSD density                        
  Achintya Kumar Dutta   : EOM-CC, STEOM-CC                              
  Nicolas Foglia         : Exact transition moments, OPA infrastructure, MCD improvements    
  Dmitry Ganyushin       : Spin-Orbit,Spin-Spin,Magnetic field MRCI      
  Miquel Garcia-Rates    : C-PCM and meta-GGA Hessian, CCSD/C-PCM, Gaussian charge scheme 
  Tiago L. C. Gouveia    : GS-ROHF, GS-ROCIS                             
  Yang Guo               : DLPNO-NEVPT2, F12-NEVPT2, CIM, IAO-localization        
  Andreas Hansen         : Spin unrestricted coupled pair/coupled cluster methods 
  Ingolf Harden          : AUTO-CI MPn and infrastructure                
  Benjamin Helmich-Paris : MC-RPA, TRAH-(SCF,CASSCF), AVAS, COSX integrals, SCF dyn. polar. 
  Lee Huntington         : MR-EOM, pCC                                   
  Robert Izsak           : Overlap fitted RIJCOSX, COSX-SCS-MP3, EOM     
  Riya Kayal             : Wick's Theorem for AUTO-CI, AUTO-CI UHF-CCSDT 
  Emily Kempfer          : AUTO-CI, RHF CISDT and CCSDT                  
  Christian Kollmar      : KDIIS, OOCD, Brueckner-CCSD(T), CCSD density, CASPT2, CASPT2-K, improved NEVPT2 
  Axel Koslowski         : Symmetry handling                             
  Simone Kossmann        : meta-GGA functionals, TD-DFT gradient, OOMP2, (MP2 Hessian; deprecated post 5.0) 
  Lucas Lang             : DCDCAS                                        
  Marvin Lechner         : AUTO-CI (C++ implementation), FIC-MRCC        
  Spencer Leger          : CASSCF response                               
  Dagmar Lenk            : GEPOL surface, SMD, ORCA-2-JSON               
  Dimitrios Liakos       : Extrapolation schemes; Compound Job, initial MDCI parallelization 
  Dimitrios Manganas     : Further ROCIS development; embedding schemes. LFT, Crystal Embedding 
  Dimitrios Pantazis     : SARC Basis sets                               
  Anastasios Papadopoulos: AUTO-CI, single reference methods and gradients 
  Taras Petrenko         : pre 6.0 DFT Hessian and TD-DFT gradient, (ASA, deprecated), ECA, 1-Electron XAS/XES, NRVS 
  Peter Pinski           : DLPNO-MP2, DLPNO-MP2 Gradient                 
  Christoph Reimann      : Effective Core Potentials                     
  Marius Retegan         : Local ZFS, SOC                                
  Christoph Riplinger    : Optimizer, TS searches, QM/MM, DLPNO-CCSD(T), (RO)-DLPNO pert. Triples 
  Michael Roemelt        : Original ROCIS implementation                 
  Masaaki Saitow         : Open-shell DLPNO-CCSD energy and density      
  Barbara Sandhoefer     : DKH picture change effects                    
  Kantharuban Sivalingam : CASSCF convergence/infrastructure, NEVPT2 and variants, FIC-MRCI 
  Bernardo de Souza      : ESD, SOC TD-DFT                               
  Georgi L. Stoychev     : AutoAux, RI-MP2 NMR, DLPNO-MP2 response, X2C  
  Van Anh Tran           : RI-MP2 g-tensors                              
  Willem Van den Heuvel  : Paramagnetic NMR                              
  Zikuan Wang            : NOTCH, Electric field optimization            
  Frank Wennmohs         : Technical directorship and infrastructure     
  Hang Xu                : AUTO-CI-Response properties                   
                                                                         
[FACCTs GmbH]                                                            
  Markus Bursch, Miquel Garcia-Rates, Christoph Riplinger, Bernardo de Souza, Georgi L. Stoychev 
                                                                 
  APM, Basis sets (HGBS, AHGBS, def-TZVP (Ac-Lr), def2-XVPD (La-Lu)), CI-OPT, improved COSX, DLPNO-Multilevel,           
  DOCKER, DRACO, updates on ESD, GOAT, IRC, LR-CPCM, MBIS, meta-GGA TD-DFT gradient, ML-optimized integration grids, 
  MM, NACMEs, nearIR, NEB, NEB-TS, NL-DFT gradient (VV10), 2- and 3-layer-ONIOM, interface openCOSMO-RS, QMMM,   
  Crystal-QMMM, SF, symmetry and pop. for TD-DFT, r2SCAN hybrids, SOLVATOR                                   
                                                                         
[Other institutions]                                                     
  V. Asgeirsson          : NEB                                           
  Christoph Bannwarth    : sTDA-DFT, sTD-DFT, PBEh-3c, B97-3c, D3        
  Sebastian Ehlert       : rSCAN, r2SCAN, r2SCAN-3c, D4, dhf basis sets  
  Marvin Friede          : D4 for Fr, Ra, Ac-Lr                          
  Lars Goerigk           : TD-DFT with DH, B97 family of functionals     
  Stefan Grimme          : VdW corrections, initial TS optimization, DFT functionals, gCP, sTDA/sTD-DF 
  Waldemar Hujo          : DFT-NL                                        
  H. Jonsson             : NEB                                           
  Holger Kruse           : gCP                                           
  Marcel Mueller         : wB97X-3c, vDZP basis set                      
  Hagen Neugebauer       : wr2SCAN                                       
  Tobias Risthaus        : range-separated hybrid DFT                    
  Lukas Wittmann         : regularized MP2, r2SCAN double-hybrids, wr2SCAN        
                                                                         
We gratefully acknowledge several colleagues who have allowed us to      
interface, adapt or use parts of their codes:                            
  Ed Valeev, F. Pavosevic, A. Kumar             : LibInt (2-el integral package), F12 methods 
  Garnet Chan, S. Sharma, J. Yang, R. Olivares  : DMRG                   
  Ulf Ekstrom                                   : XCFun DFT Library      
  Mihaly Kallay                                 : mrcc  (arbitrary order and MRCC methods)
  Frank Weinhold                                : gennbo (NPA and NBO analysis)           
  Simon Mueller                                 : openCOSMO-RS                            
  Christopher J. Cramer and Donald G. Truhlar   : smd solvation model                     
  S Lehtola, MJT Oliveira, MAL Marques          : LibXC Library                           
  Liviu Ungur et al                             : ANISO software                          


 Your calculation uses the libint2 library for the computation of 2-el integrals
 For citations please refer to: http://libint.valeyev.net

 Your ORCA version has been built with support for libXC version: 6.2.2
 For citations please refer to: https://libxc.gitlab.io

 This ORCA versions uses:
   CBLAS   interface :  Fast vector & matrix operations
   LAPACKE interface :  Fast linear algebra routines
   SCALAPACK package :  Parallel linear algebra routines
   Shared memory     :  Shared parallel matrices
   BLAS/LAPACK       :  OpenBLAS 0.3.27  USE64BITINT DYNAMIC_ARCH NO_AFFINITY Haswell SINGLE_THREADED
        Core in use  :  Haswell
   Copyright (c) 2011-2014, The OpenBLAS Project


NOTE: MaxCore=8000 MB was set to SCF,MP2,MDCI,CIPSI,MRCI and CIS
      => If you want to overwrite this, your respective input block should be placed after the MaxCore statement
================================================================================

----- Orbital basis set information -----
Your calculation utilizes the basis: def2-SVP
   F. Weigend and R. Ahlrichs, Phys. Chem. Chem. Phys. 7, 3297 (2005).

----- AuxC basis set information -----
Your calculation utilizes the auxiliary basis: def2-SVP/C
  H-La, Hf-Rn : A. Hellweg, C. Hattig, S. Hofener and W. Klopper, Theor. Chem. Acc. 117, 587 (2007).
        Ce-Lu : J. Chmela and M. E. Harding, Mol. Phys. (2018).

----- AuxJK basis set information -----
Your calculation utilizes the auxiliary basis: def2/JK
   H-Ba, Hf-Rn: F. Weigend, J. Comput. Chem. 29, 167 (2008).

================================================================================
                                        WARNINGS
                       Please study these warnings very carefully!
================================================================================

WARNING: Old DensityContainer found on disk!
         Will remove this file - 
         If you want to keep old densities, please start your calculation with a different basename. 


WARNING: your system is open-shell and RHF/RKS was chosen
  ===> : WILL SWITCH to UHF/UKS


WARNING: Post HF methods need fully converged wavefunctions
  ===> : Setting SCFConvForced true
         You can overwrite this default with %scf ConvForced false 


WARNING: Restarting MDCI calulations with QROs will lead to 
         significant changes in the QROs!
  ===> : For restart on a converged wavefunction better use NoIter or MaxIter=0


WARNING: PNO calculations with unrestricted orbitals require UNOs
  ===> : Switching on UNOs

WARNING: Unrestricted DLPNO-CCSD(T0/T) with FullLMP2-Guess requested.
         This is not yet implemented.
         When comparing energies between closed and open shell calculations:
  ===> : Be aware to set UseFullLMP2Guess to false for the corresponding closed shell calculations.
         Note that UseFullLMP2Guess is done by default only for TightPNO closed shell calculations.


WARNING: MDCI localization with Augmented Hessian Foster-Boys
  ===> : Switching off randomization!

WARNING: UseCISUpdate is  only available for RHF calculations...
  ===> : Setting UseCISUpdate = false 

================================================================================
                                       INPUT FILE
================================================================================
NAME = /home/ubuntu/Shiwei/qm9_reaction_eng/qm9_orca_work/qm9_orca_work_elem/o/o_ccsdt_def2svp.inp
|  1> ! DLPNO-CCSD(T) def2-SVP def2/JK RIJK def2-SVP/C
|  2> %maxcore 8000
|  3> %method
|  4> FrozenCore FC_ELECTRONS
|  5> end
|  6> 
|  7> %mdci
|  8>    TCutPairs 1e-6
|  9>    printlevel 4
| 10> end
| 11> 
| 12> %loc
| 13> LocMet AHFB
| 14> OCC true
| 15> end
| 16> 
| 17> *xyz 0 3
| 18> O 0.0 0.0 0.0
| 19> *
| 20> 
| 21>                          ****END OF INPUT****
================================================================================

                       ****************************
                       * Single Point Calculation *
                       ****************************

---------------------------------
CARTESIAN COORDINATES (ANGSTROEM)
---------------------------------
  O      0.000000    0.000000    0.000000

----------------------------
CARTESIAN COORDINATES (A.U.)
----------------------------
  NO LB      ZA    FRAG     MASS         X           Y           Z
   0 O     8.0000    0    15.999    0.000000    0.000000    0.000000

--------------------------------
INTERNAL COORDINATES (ANGSTROEM)
--------------------------------
 O      0   0   0     0.000000000000     0.00000000     0.00000000

---------------------------
INTERNAL COORDINATES (A.U.)
---------------------------
 O      0   0   0     0.000000000000     0.00000000     0.00000000

---------------------
BASIS SET INFORMATION
---------------------
There are 1 groups of distinct atoms

 Group   1 Type O   : 7s4p1d contracted to 3s2p1d pattern {511/31/1}

Atom   0O    basis set group =>   1
---------------------------------
AUXILIARY/C BASIS SET INFORMATION
---------------------------------
There are 1 groups of distinct atoms

 Group   1 Type O   : 8s6p5d3f contracted to 6s5p4d1f pattern {311111/21111/2111/3}

Atom   0O    basis set group =>   1
----------------------------------
AUXILIARY/JK BASIS SET INFORMATION
----------------------------------
There are 1 groups of distinct atoms

 Group   1 Type O   : 14s10p6d2f1g contracted to 10s8p4d2f1g pattern {5111111111/31111111/3111/11/1}

Atom   0O    basis set group =>   1

Checking for AutoStart:
The File: /home/ubuntu/Shiwei/qm9_reaction_eng/qm9_orca_work/qm9_orca_work_elem/o/o_ccsdt_def2svp.gbw exists
Trying to determine its content:
     ... Fine, the file contains calculation information
     ... Fine, the calculation information was read
     ... Fine, the file contains a basis set
     ... Fine, the basis set was read
     ... Fine, the file contains a geometry
     ... Fine, the geometry was read
     ... Fine, the file contains a set of orbitals
     ... Fine, the orbitals can be read
     => possible old guess file was deleted
     => GBW file was renamed to GES file
     => GES file is set as startup file
     => Guess is set to MORead
     ... now leaving AutoStart

------------------------------------------------------------------------------
                             ORCA STARTUP CALCULATIONS
                           -- RI-GTO INTEGRALS CHOSEN --
------------------------------------------------------------------------------
------------------------------------------------------------------------------
                   ___                                                        
                  /   \      - P O W E R E D   B Y -                         
                 /     \                                                     
                 |  |  |   _    _      __       _____    __    __             
                 |  |  |  | |  | |    /  \     |  _  \  |  |  /  |          
                  \  \/   | |  | |   /    \    | | | |  |  | /  /          
                 / \  \   | |__| |  /  /\  \   | |_| |  |  |/  /          
                |  |  |   |  __  | /  /__\  \  |    /   |      \           
                |  |  |   | |  | | |   __   |  |    \   |  |\   \          
                \     /   | |  | | |  |  |  |  | |\  \  |  | \   \       
                 \___/    |_|  |_| |__|  |__|  |_| \__\ |__|  \__/        
                                                                              
                      - O R C A' S   B I G   F R I E N D -                    
                                      &                                       
                       - I N T E G R A L  F E E D E R -                       
                                                                              
 v1 FN, 2020, v2 2021, v3 2022-2024                                           
------------------------------------------------------------------------------


----------------------
SHARK INTEGRAL PACKAGE
----------------------

Number of atoms                             ...      1
Number of basis functions                   ...     14
Number of shells                            ...      6
Maximum angular momentum                    ...      2
Integral batch strategy                     ... SHARK/LIBINT Hybrid
RI-J (if used) integral strategy            ... SPLIT-RIJ (Revised 2003 algorithm where possible)
Printlevel                                  ...      1
Contraction scheme used                     ... SEGMENTED contraction
Prescreening option                         ... SCHWARTZ
   Thresh                                   ... 1.000e-10
   Tcut                                     ... 1.000e-11
   Tpresel                                  ... 1.000e-11 
Coulomb Range Separation                    ... NOT USED
Exchange Range Separation                   ... NOT USED
Multipole approximations                    ... NOT USED
Finite Nucleus Model                        ... NOT USED
CABS basis                                  ... NOT available
Auxiliary Coulomb fitting basis             ... NOT available
Auxiliary J/K fitting basis                 ... AVAILABLE
   # of basis functions in Aux-JK           ...     77
   # of shells in Aux-JK                    ...     25
   Maximum angular momentum in Aux-JK       ...      4
Auxiliary Correlation fitting basis         ... AVAILABLE
   # of basis functions in Aux-C            ...     48
   # of shells in Aux-C                     ...     16
   Maximum angular momentum in Aux-C        ...      3
Auxiliary 'external' fitting basis          ... NOT available

Checking pre-screening integrals            ... done (  0.0 sec) Dimension = 6
Check shell pair data                       ... done (  0.0 sec)
Shell pair information
Shell pair cut-off parameter TPreSel        ...   1.0e-11
Total number of shell pairs                 ...        21
Shell pairs after pre-screening             ...        21
Total number of primitive shell pairs       ...        91
Primitive shell pairs kept                  ...        91
          la=0 lb=0:      6 shell pairs
          la=1 lb=0:      6 shell pairs
          la=1 lb=1:      3 shell pairs
          la=2 lb=0:      3 shell pairs
          la=2 lb=1:      2 shell pairs
          la=2 lb=2:      1 shell pairs

Calculating one electron integrals          ... done (  0.0 sec)
Calculating RI/JK V-Matrix + Cholesky decomp... done (  0.0 sec)
Calculating RI/C V-Matrix + Cholesky decomp.... done (  0.0 sec)
Calculating Nuclear repulsion               ... done (  0.0 sec) ENN=      0.000000000000 Eh

Diagonalization of the overlap matrix:
Smallest eigenvalue                        ... 1.875e-01
Time for diagonalization                   ...    0.000 sec
Threshold for overlap eigenvalues          ... 1.000e-07
Number of eigenvalues below threshold      ... 0
Time for construction of square roots      ...    0.000 sec
Total time needed                          ...    0.000 sec

-------------------
DFT GRID GENERATION
-------------------

General Integration Accuracy     IntAcc      ... 4.388
Radial Grid Type                 RadialGrid  ... OptM3 with GC (2021)
Angular Grid (max. ang.)         AngularGrid ... 4 (Lebedev-302)
Angular grid pruning method      GridPruning ... 4 (adaptive)
Weight generation scheme         WeightScheme... mBecke (2022)
Basis function cutoff            BFCut       ... 1.0000e-10
Integration weight cutoff        WCut        ... 1.0000e-14
Partially contracted basis set               ... off
Rotationally invariant grid construction     ... off
Angular grids for H and He will be reduced by one unit

Total number of grid points                  ...     6136
Total number of batches                      ...       96
Average number of points per batch           ...       63
Average number of grid points per atom       ...     6136
Initializing property integral containers    ... done (  0.0 sec)

SHARK setup successfully completed in   0.0 seconds

Maximum memory used throughout the entire STARTUP-calculation: 8.7 MB
-------------------------------------------------------------------------------
                                 ORCA GUESS
                   Start orbitals & Density for SCF / CASSCF
-------------------------------------------------------------------------------

------------
SCF SETTINGS
------------
Hamiltonian:
 Ab initio Hamiltonian  Method          .... Hartree-Fock(GTOs)
 RI-approximation to the Coulomb term is turned on
   Number of AuxJK basis functions      .... 77
   RI-JK (J+K treated both via RI)      .... on


General Settings:
 Integral files         IntName         .... /home/ubuntu/Shiwei/qm9_reaction_eng/qm9_orca_work/qm9_orca_work_elem/o/o_ccsdt_def2svp
 Hartree-Fock type      HFTyp           .... UHF
 Total Charge           Charge          ....    0
 Multiplicity           Mult            ....    3
 Number of Electrons    NEL             ....    8
 Basis Dimension        Dim             ....   14
 Nuclear Repulsion      ENuc            ....      0.0000000000 Eh

Convergence Acceleration:
 AO-DIIS                CNVDIIS         .... on
   Start iteration      DIISMaxIt       ....    12
   Startup error        DIISStart       ....  0.200000
   # of expansion vecs  DIISMaxEq       ....     5
   Bias factor          DIISBfac        ....   1.050
   Max. coefficient     DIISMaxC        ....  10.000
 MO-DIIS                CNVKDIIS        .... off
 Trust-Rad. Augm. Hess. CNVTRAH         .... auto
   Auto Start mean grad. ratio tolernc. ....  1.125000
   Auto Start start iteration           ....     1
   Auto Start num. interpolation iter.  ....    10
   Max. Number of Micro iterations      ....    24
   Max. Number of Macro iterations      .... Maxiter - #DIIS iter
   Number of Davidson start vectors     ....     2
   Converg. threshold    (grad. norm)   ....   5.000e-05
   Grad. Scal. Fac. for Micro threshold ....   0.100
   Minimum threshold for Micro iter.    ....   1.000e-02
   NR start threshold (gradient norm)   ....   1.000e-04
   Initial trust radius                 ....   0.400
   Minimum AH scaling param. (alpha)    ....   1.000
   Maximum AH scaling param. (alpha)    .... 1000.000
   Quad. conv. algorithm                .... NR
   White noise on init. David. guess    .... on
   Maximum white noise                  ....   0.010
   Pseudo random numbers                .... off
   Inactive MOs                         .... canonical
   Orbital update algorithm             .... Taylor
   Preconditioner                       .... Diag
   Full preconditioner red. dimension   ....   250
 SOSCF                  CNVSOSCF        .... on
   Start iteration      SOSCFMaxIt      ....   150
   Startup grad/error   SOSCFStart      ....  0.003300
   Hessian update       SOSCFHessUp     .... L-BFGS
 Level Shifting         CNVShift        .... on
   Level shift para.    LevelShift      ....    0.2500
   Turn off err/grad.   ShiftErr        ....    0.0010
 Zerner damping         CNVZerner       .... off
 Static damping         CNVDamp         .... on
   Fraction old density DampFac         ....    0.7000
   Max. Damping (<1)    DampMax         ....    0.9800
   Min. Damping (>=0)   DampMin         ....    0.0000
   Turn off err/grad.   DampErr         ....    0.1000

SCF Procedure:
 Maximum # iterations   MaxIter         ....   125
 SCF integral mode      SCFMode         .... Direct
   Integral package                     .... SHARK and LIBINT hybrid scheme
 Reset frequency        DirectResetFreq ....    20
 Integral Threshold     Thresh          ....  1.000e-10 Eh
 Primitive CutOff       TCut            ....  1.000e-11 Eh

Convergence Tolerance:
 Convergence Check Mode ConvCheckMode   .... Total+1el-Energy
 Convergence forced     ConvForced      .... 1
 Energy Change          TolE            ....  1.000e-06 Eh
 1-El. energy change                    ....  1.000e-03 Eh
 Orbital Gradient       TolG            ....  5.000e-05
 Orbital Rotation angle TolX            ....  5.000e-05
 DIIS Error             TolErr          ....  1.000e-06

---------------------
INITIAL GUESS: MOREAD
---------------------
Guess MOs are being read from file: /home/ubuntu/Shiwei/qm9_reaction_eng/qm9_orca_work/qm9_orca_work_elem/o/o_ccsdt_def2svp.ges
Input Geometry matches current geometry (good)
Input basis set matches current basis set (good)
MOs were renormalized
MOs were reorthogonalized (Cholesky)
                      ------------------
                      INITIAL GUESS DONE (   0.0 sec)
                      ------------------
             **** ENERGY FILE WAS UPDATED (/home/ubuntu/Shiwei/qm9_reaction_eng/qm9_orca_work/qm9_orca_work_elem/o/o_ccsdt_def2svp.en.tmp) ****
Finished Guess after   0.0 sec
Maximum memory used throughout the entire GUESS-calculation: 5.3 MB

-------------------------------------------------------------------------------------------
                                      ORCA LEAN-SCF
                              memory conserving SCF solver
-------------------------------------------------------------------------------------------

----------------------------------------D-I-I-S--------------------------------------------
Iteration    Energy (Eh)           Delta-E    RMSDP     MaxDP     DIISErr   Damp  Time(sec)
-------------------------------------------------------------------------------------------
                              *** Initializing SOSCF ***
---------------------------------------S-O-S-C-F--------------------------------------
Iteration    Energy (Eh)           Delta-E    RMSDP     MaxDP     MaxGrad    Time(sec)
--------------------------------------------------------------------------------------
    1    -74.7200622566284522     0.00e+00  6.91e-07  3.77e-06  8.26e-07     0.0
    2    -74.7200622567083599    -7.99e-11  2.49e-07  2.39e-06  3.60e-06     0.0
                  *** Gradient check signals convergence ***

               *****************************************************
               *                     SUCCESS                       *
               *           SCF CONVERGED AFTER   2 CYCLES          *
               *****************************************************

             **** ENERGY FILE WAS UPDATED (/home/ubuntu/Shiwei/qm9_reaction_eng/qm9_orca_work/qm9_orca_work_elem/o/o_ccsdt_def2svp.en.tmp) ****

----------------
TOTAL SCF ENERGY
----------------

Total Energy       :        -74.72006225670836 Eh           -2033.23626 eV

Components:
Nuclear Repulsion  :          0.00000000000000 Eh               0.00000 eV
Electronic Energy  :        -74.72006225670836 Eh           -2033.23626 eV
One Electron Energy:       -103.16449741241027 Eh           -2807.24869 eV
Two Electron Energy:         28.44443515570191 Eh             774.01243 eV

Virial components:
Potential Energy   :       -149.44800760245761 Eh           -4066.68703 eV
Kinetic Energy     :         74.72794534574923 Eh            2033.45077 eV
Virial Ratio       :          1.99989450949033

---------------
SCF CONVERGENCE
---------------

  Last Energy change         ...    7.9908e-11  Tolerance :   1.0000e-06
  Last MAX-Density change    ...    2.3856e-06  Tolerance :   1.0000e-05
  Last RMS-Density change    ...    2.4906e-07  Tolerance :   1.0000e-06
  Last DIIS Error            ...    5.0686e-06  Tolerance :   1.0000e-06
  Last Orbital Gradient      ...    3.5997e-06  Tolerance :   5.0000e-05
  Last Orbital Rotation      ...    2.0756e-06  Tolerance :   5.0000e-05


----------------------
UHF SPIN CONTAMINATION
----------------------

Expectation value of <S**2>     :     2.005295
Ideal value S*(S+1) for S=1.0   :     2.000000
Deviation                       :     0.005295

----------------
ORBITAL ENERGIES
----------------
                 SPIN UP ORBITALS
  NO   OCC          E(Eh)            E(eV) 
   0   1.0000     -20.696913      -563.1916 
   1   1.0000      -1.385012       -37.6881 
   2   1.0000      -0.703005       -19.1297 
   3   1.0000      -0.703005       -19.1297 
   4   1.0000      -0.606183       -16.4951 
   5   0.0000       0.961092        26.1527 
   6   0.0000       1.067386        29.0451 
   7   0.0000       1.067386        29.0451 
   8   0.0000       1.128116        30.6976 
   9   0.0000       2.794076        76.0307 
  10   0.0000       2.794076        76.0307 
  11   0.0000       2.861062        77.8535 
  12   0.0000       2.861062        77.8535 
  13   0.0000       2.884778        78.4988 

                 SPIN DOWN ORBITALS
  NO   OCC          E(Eh)            E(eV) 
   0   1.0000     -20.615253      -560.9696 
   1   1.0000      -1.048275       -28.5250 
   2   1.0000      -0.517981       -14.0950 
   3   0.0000       0.128772         3.5041 
   4   0.0000       0.128772         3.5041 
   5   0.0000       1.053454        28.6659 
   6   0.0000       1.172896        31.9161 
   7   0.0000       1.290068        35.1045 
   8   0.0000       1.290068        35.1045 
   9   0.0000       2.986323        81.2620 
  10   0.0000       2.997604        81.5690 
  11   0.0000       2.997604        81.5690 
  12   0.0000       3.036860        82.6372 
  13   0.0000       3.036860        82.6372 
*Only the first 10 virtual orbitals were printed.

                    ********************************
                    * MULLIKEN POPULATION ANALYSIS *
                    ********************************

--------------------------------------------
MULLIKEN ATOMIC CHARGES AND SPIN POPULATIONS
--------------------------------------------
   0 O :    0.000000    2.000000
Sum of atomic charges         :    0.0000000
Sum of atomic spin populations:    2.0000000

-----------------------------------------------------
MULLIKEN REDUCED ORBITAL CHARGES AND SPIN POPULATIONS
-----------------------------------------------------
CHARGE
  0 O s       :     3.999142  s :     3.999142
      pz      :     1.914531  p :     4.000000
      px      :     1.028143
      py      :     1.057326
      dz2     :     0.000652  d :     0.000858
      dxz     :     0.000066
      dyz     :     0.000135
      dx2y2   :     0.000001
      dxy     :     0.000004


SPIN
  0 O s       :     0.000167  s :     0.000167
      pz      :     0.085469  p :     2.000000
      px      :     0.971857
      py      :     0.942674
      dz2     :    -0.000127  d :    -0.000167
      dxz     :    -0.000013
      dyz     :    -0.000026
      dx2y2   :    -0.000000
      dxy     :    -0.000001



                     *******************************
                     * LOEWDIN POPULATION ANALYSIS *
                     *******************************

-------------------------------------------
LOEWDIN ATOMIC CHARGES AND SPIN POPULATIONS
-------------------------------------------
   0 O :    0.000000    2.000000

----------------------------------------------------
LOEWDIN REDUCED ORBITAL CHARGES AND SPIN POPULATIONS
----------------------------------------------------
CHARGE
  0 O s       :     3.999142  s :     3.999142
      pz      :     1.914531  p :     4.000000
      px      :     1.028143
      py      :     1.057326
      dz2     :     0.000652  d :     0.000858
      dxz     :     0.000066
      dyz     :     0.000135
      dx2y2   :     0.000001
      dxy     :     0.000004


SPIN
  0 O s       :     0.000167  s :     0.000167
      pz      :     0.085469  p :     2.000000
      px      :     0.971857
      py      :     0.942674
      dz2     :    -0.000127  d :    -0.000167
      dxz     :    -0.000013
      dyz     :    -0.000026
      dx2y2   :    -0.000000
      dxy     :    -0.000001



                      *****************************
                      * MAYER POPULATION ANALYSIS *
                      *****************************

  NA   - Mulliken gross atomic population
  ZA   - Total nuclear charge
  QA   - Mulliken gross atomic charge
  VA   - Mayer's total valence
  BVA  - Mayer's bonded valence
  FA   - Mayer's free valence

  ATOM       NA         ZA         QA         VA         BVA        FA
  0 O      8.0000     8.0000     0.0000     2.0106     0.0000     2.0106

  Mayer bond orders larger than 0.100000
  => no bond orders to print

             ***UHF Natural Spin-Orbitals were saved in /home/ubuntu/Shiwei/qm9_reaction_eng/qm9_orca_work/qm9_orca_work_elem/o/o_ccsdt_def2svp.unso***
                ***UHF Natural Orbitals were saved in /home/ubuntu/Shiwei/qm9_reaction_eng/qm9_orca_work/qm9_orca_work_elem/o/o_ccsdt_def2svp.uno***
QR-MO GENERATION
 Dim     =   14
 Mult    =    3
 NEl     =    8
 N(DOMO) =    3
 N(SOMO) =    2
 N(VMO)  =    9

                ***Quasi-Restricted Orbitals were saved in /home/ubuntu/Shiwei/qm9_reaction_eng/qm9_orca_work/qm9_orca_work_elem/o/o_ccsdt_def2svp.qro***

Orbital Energies of Quasi-Restricted MO's
   0( 2) :   -20.615226 a.u.  -560.969 eV
   1( 2) :    -1.045303 a.u.   -28.444 eV
   2( 2) :    -0.517464 a.u.   -14.081 eV
   3( 1) :    -0.260512 a.u.    -7.089 eV alpha=  -19.130 beta=    4.952
   4( 1) :    -0.260512 a.u.    -7.089 eV alpha=  -19.130 beta=    4.952
   5( 0) :     0.959656 a.u.    26.114 eV
   6( 0) :     1.067386 a.u.    29.045 eV
   7( 0) :     1.067386 a.u.    29.045 eV
   8( 0) :     1.127585 a.u.    30.683 eV
   9( 0) :     2.794076 a.u.    76.031 eV
  10( 0) :     2.794076 a.u.    76.031 eV
  11( 0) :     2.861062 a.u.    77.853 eV
  12( 0) :     2.861062 a.u.    77.853 eV
  13( 0) :     2.882996 a.u.    78.450 eV
-------
TIMINGS
-------

Total SCF time: 0 days 0 hours 0 min 0 sec 

Total time                  ....       0.026 sec
Sum of individual times     ....       0.024 sec  ( 93.8%)

SCF preparation             ....       0.018 sec  ( 70.6%)
Fock matrix formation       ....       0.002 sec  (  7.0%)
  Startup                   ....       0.000 sec  (  6.4% of F)
  RI-JK                     ....       0.001 sec  ( 70.1% of F)
Diagonalization             ....       0.000 sec  (  0.0%)
Density matrix formation    ....       0.000 sec  (  0.8%)
Total Energy calculation    ....       0.000 sec  (  0.2%)
Population analysis         ....       0.003 sec  (  9.9%)
Orbital Transformation      ....       0.001 sec  (  2.0%)
Orbital Orthonormalization  ....       0.000 sec  (  0.0%)
DIIS solution               ....       0.000 sec  (  1.0%)
SOSCF solution              ....       0.001 sec  (  2.1%)
Finished LeanSCF after   0.0 sec

Maximum memory used throughout the entire LEANSCF-calculation: 4.4 MB

------------------------------------------------------------------------------
                         ORCA PROPERTY INTEGRAL CALCULATIONS
------------------------------------------------------------------------------

GBWName                                   ... /home/ubuntu/Shiwei/qm9_reaction_eng/qm9_orca_work/qm9_orca_work_elem/o/o_ccsdt_def2svp.gbw
Number of atoms                           ...      1
Number of basis functions                 ...     14
Max core memory                           ...   8000 MB

Dipole integrals                          ... YES
Quadrupole integrals                      ...  NO
Linear momentum integrals                 ... YES
Angular momentum integrals                ... YES
Higher moments length integrals           ...  NO
Higher moments velocity integrals         ...  NO
Kinetic energy integrals                  ...  NO
GIAO right hand sides                     ...  NO
GIAO dipole derivative integrals          ...  NO
SOC integrals                             ...  NO
EPR diamagnetic integrals (GIAO)          ...  NO
EPR gauge integrals                       ...  NO
Field gradient integrals                  ...  NO (   0 nuclei)
Spin-dipole/Fermi contact integrals       ...  NO (   0 nuclei)
Contact density integrals                 ...  NO (   0 nuclei)
Nucleus-orbit integrals                   ...  NO (   0 nuclei)
Geometric perturbations                   ...  NO (   1 nuclei)

Choice of electric origin   ... Center of mass
Position of electric origin ... (  0.0000,  0.0000,  0.0000) 
Choice of magnetic origin   ... GIAO
Position of magnetic origin ... (  0.0000,  0.0000,  0.0000) 

Calculating integrals                     ... Electric Dipole (Length)     done (  0.0 sec)
Calculating integrals                     ... Linear Momentum              done (  0.0 sec)
Calculating integrals                     ... Angular Momentum  (ElOri)    done (  0.0 sec)

Property integrals calculated in   0.0 sec

Maximum memory used throughout the entire PROPINT-calculation: 5.4 MB
------------------------------------------------------------------------------
                           ORCA ORBITAL LOCALIZATION
------------------------------------------------------------------------------

Input orbitals are from                  ... /home/ubuntu/Shiwei/qm9_reaction_eng/qm9_orca_work/qm9_orca_work_elem/o/o_ccsdt_def2svp.gbw
Output orbitals are to                   ... /home/ubuntu/Shiwei/qm9_reaction_eng/qm9_orca_work/qm9_orca_work_elem/o/o_ccsdt_def2svp.loc
Max. number of iterations                ... 128
Localizations seeded randomly            ... on
Convergence tolerance                    ... 1.000e-06
Threshold for strong local MOs           ... 9.500e-01
Threshold for bond MOs                   ... 8.500e-01
Operator                                 ... 0
Orbital range for localization           ... 1 to 4
Localization criterion                   ... FOSTER-BOYS (AUGMENTED HESSIAN)
Doing the dipole integrals     ... o.k.
Initial value of the localization sum :     0.000000
ITERATION   0 : L=    1.1458446379 DL=  1.15e+00 (AVERGE_DL)=    0.4370058424 
ITERATION   1 : L=    1.2951446459 DL=  1.49e-01 (AVERGE_DL)=    0.1577445234 
ITERATION   2 : L=    1.3043033176 DL=  9.16e-03 (AVERGE_DL)=    0.0390697489 
ITERATION   3 : L=    1.3048772428 DL=  5.74e-04 (AVERGE_DL)=    0.0097802969 
ITERATION   4 : L=    1.3049127344 DL=  3.55e-05 (AVERGE_DL)=    0.0024321328 
ITERATION   5 : L=    1.3049150656 DL=  2.33e-06 (AVERGE_DL)=    0.0006233140 
ITERATION   6 : L=    1.3049152027 DL=  1.37e-07 (AVERGE_DL)=    0.0001511578 
LOCALIZATION SUM CONVERGED

------------------------------------------------------
AUGMENTED HESSIAN OPTIMIZATION OF FOSTER-BOYS ORBITALS
------------------------------------------------------

Spin operator:           0
Orbital window:          1 to 4
Number of iterations:    128
Gradient tolerance:      1.000e-06
Number of pairs:         6
Davidson threshold:      2000
Diagonalization method:  LAPACK
Iter:    0   L: 1.3049152027   Grad. norm: 3.262748e-04
   *** Detected a saddle point. ***
       Augmented Hessian eigenvalues:  3.52e-04  3.07e-05 -1.64e-05 -4.94e-04 ... 
Iter:    1   L: 1.3049390527   Grad. norm: 6.885970e-03
Iter:    2   L: 1.3049549515   Grad. norm: 1.123484e-03
Iter:    3   L: 1.3049560191   Grad. norm: 1.730349e-04
   *** Likely close to a maximum now. ***
       Augmented Hessian eigenvalues:  2.73e-08  5.25e-09 -4.86e-04 -4.99e-04 ... 
Iter:    4   L: 1.3049560329   Grad. norm: 2.213645e-06
Iter:    5   L: 1.3049560329   Grad. norm: 7.246954e-10
LOCALIZATION HAS CONVERGED.

Eigenvalues of the Hessian:
  0  2.186e-15
  1 -4.873e-04
  2 -4.873e-04
  3 -3.349e+00
  4 -3.546e+00
  5 -3.546e+00


--------------------------------------------------------------------------------
                    LOCALIZED MOLECULAR ORBITAL COMPOSITIONS
--------------------------------------------------------------------------------

The Mulliken populations for each LMO on each atom are computed
The LMO`s will be ordered according to atom index and type
  (A) Strongly localized MO`s have populations of >=0.950 on one atom
  (B) Two center bond orbitals have populations of >=0.850 on two atoms
  (C) Other MO`s are considered to be `delocalized`

FOUND  -   4 strongly local MO`s
       -   0 two center bond MO`s
       -   0 significantly delocalized MO`s

Rather strongly localized orbitals:
MO   4:   0O  -   1.000000
MO   3:   0O  -   1.000000
MO   2:   0O  -   1.000000
MO   1:   0O  -   1.000000
Localized MO's were stored in: /home/ubuntu/Shiwei/qm9_reaction_eng/qm9_orca_work/qm9_orca_work_elem/o/o_ccsdt_def2svp.loc
------------------------------------------------------------------------------
                           ORCA ORBITAL LOCALIZATION
------------------------------------------------------------------------------

Input orbitals are from                  ... /home/ubuntu/Shiwei/qm9_reaction_eng/qm9_orca_work/qm9_orca_work_elem/o/o_ccsdt_def2svp.loc
Output orbitals are to                   ... /home/ubuntu/Shiwei/qm9_reaction_eng/qm9_orca_work/qm9_orca_work_elem/o/o_ccsdt_def2svp.loc
Max. number of iterations                ... 128
Localizations seeded randomly            ... on
Convergence tolerance                    ... 1.000e-06
Threshold for strong local MOs           ... 9.500e-01
Threshold for bond MOs                   ... 8.500e-01
Operator                                 ... 1
Orbital range for localization           ... 1 to 2
Localization criterion                   ... FOSTER-BOYS (AUGMENTED HESSIAN)
Doing the dipole integrals     ... o.k.
Initial value of the localization sum :     0.000000
ITERATION   0 : L=    0.9941063693 DL=  9.94e-01 (AVERGE_DL)=    0.9970488299 
ITERATION   1 : L=    0.9941063693 DL=  0.00e+00 (AVERGE_DL)=    0.0000000000 
LOCALIZATION SUM CONVERGED

------------------------------------------------------
AUGMENTED HESSIAN OPTIMIZATION OF FOSTER-BOYS ORBITALS
------------------------------------------------------

Spin operator:           1
Orbital window:          1 to 2
Number of iterations:    128
Gradient tolerance:      1.000e-06
Number of pairs:         1
Davidson threshold:      2000
Diagonalization method:  LAPACK
Iter:    0   L: 0.9941063693   Grad. norm: 1.047403e-17
   *** Likely close to a maximum now. ***
       Augmented Hessian eigenvalues:  1.38e-35 -7.95e+00
Iter:    1   L: 0.9941063693   Grad. norm: 6.310887e-30
LOCALIZATION HAS CONVERGED.

Eigenvalues of the Hessian:
  0 -7.953e+00


--------------------------------------------------------------------------------
                    LOCALIZED MOLECULAR ORBITAL COMPOSITIONS
--------------------------------------------------------------------------------

The Mulliken populations for each LMO on each atom are computed
The LMO`s will be ordered according to atom index and type
  (A) Strongly localized MO`s have populations of >=0.950 on one atom
  (B) Two center bond orbitals have populations of >=0.850 on two atoms
  (C) Other MO`s are considered to be `delocalized`

FOUND  -   2 strongly local MO`s
       -   0 two center bond MO`s
       -   0 significantly delocalized MO`s

Rather strongly localized orbitals:
MO   2:   0O  -   1.000000
MO   1:   0O  -   1.000000
Localized MO's were stored in: /home/ubuntu/Shiwei/qm9_reaction_eng/qm9_orca_work/qm9_orca_work_elem/o/o_ccsdt_def2svp.loc
Warning: The program was called with UseRHFInts=true. This is deprecated now and will be ignored - sorry!
         your calculation will be ok, but may produce a slightly different result from earlier ORCA versions
Warning: The code was about to set UseRHFInts to true, but this feature is now deprecated


--------------------------------------------------------------------------------
                             ORCA-MATRIX DRIVEN CI
--------------------------------------------------------------------------------


Wavefunction type
-----------------
Correlation treatment                      ...      CCSD     
Single excitations                         ... ON
Orbital optimization                       ... OFF
Calculation of Z vector                    ... OFF
Calculation of Brueckner orbitals          ... OFF
Perturbative triple excitations            ... ON
Calculation of F12 correction              ... OFF
Frozen core treatment                      ... chemical core (2 el)
Reference Wavefunction                     ... UHF
  Alpha-MOs occ    :     1 ...    4 (  4 MO's/  4 electrons)
  Beta-MOs occ     :     1 ...    2 (  2 MO's/  2 electrons)
  Alpha-MOs virt   :     5 ...   13 (  9 MO's              )
  Beta-MOs virt    :     3 ...   13 ( 11 MO's              )
  Quasi restricted orbitals will be used (this is similar to a ROHF determinant)
Number of AO's                             ...     14
Number of electrons                        ...      8
Number of correlated electrons             ...      6

Algorithmic settings
--------------------
Integral transformation                    ... All integrals via the RI transformation
K(C) Formation                             ... RI-DLPNO
   PNO-Integral Storage                    ... ON DISK
   PNO occupation number cut-off           ... 3.330e-07
   Singles PNO occupation number cut-off   ... 9.990e-09
   PNO Mulliken prescreening cut-off       ... 1.000e-03
   Domain cut-off (Mulliken population)    ... 1.000e-03
   PNO Normalization                       ...    1
Maximum number of iterations               ...        50
Convergence tolerance (max. residuum)      ... 2.500e-05
Level shift for amplitude update           ... 2.000e-01
Maximum number of DIIS vectors             ...         7
DIIS turned on at iteration                ...         0
Damping before turning on DIIS             ...     0.500
Damping after turning on DIIS              ...     0.000
Pair specific amplitude update             ... OFF
Natural orbital iterations                 ... OFF
Perturbative natural orbital generation    ... OFF
Printlevel                                 ... 4

Singles Fock matrix elements calculated using PNOs.

Memory handling:
----------------
Maximum memory for working arrays          ...   8000 MB
Data storage in matrix containers          ... UNCOMPRESSED
Data type for integral storage             ... DOUBLE
In-Core Storage of quantities:
   Amplitudes+Sigma Vector      ... NO
   J+K operators                ... NO
   DIIS vectors                 ... NO
   3-external integrals         ... NO
   4-external integrals         ... NO


Initializing the integral package          ... done
Localizing the valence QROs
------------------------------------------------------------------------------
                           ORCA ORBITAL LOCALIZATION
------------------------------------------------------------------------------

Input orbitals are from                  ... /home/ubuntu/Shiwei/qm9_reaction_eng/qm9_orca_work/qm9_orca_work_elem/o/o_ccsdt_def2svp.qro
Output orbitals are to                   ... /home/ubuntu/Shiwei/qm9_reaction_eng/qm9_orca_work/qm9_orca_work_elem/o/o_ccsdt_def2svp.loc
Max. number of iterations                ... 128
Localizations seeded randomly            ... off
Convergence tolerance                    ... 1.000e-06
Using relative localization threshhold   ... 1.000e-08
Threshold for strong local MOs           ... 9.500e-01
Threshold for bond MOs                   ... 8.500e-01
Operator                                 ... 0
Orbital range for localization           ... 1 to 2
Localization criterion                   ... FOSTER-BOYS (AUGMENTED HESSIAN)
Doing the dipole integrals     ... o.k.
Initial value of the localization sum :     0.000000
ITERATION   0 : L=    0.9228778124 DL=  9.23e-01 (AVERGE_DL)=    0.9606652968 
ITERATION   1 : L=    0.9228778124 DL=  0.00e+00 (AVERGE_DL)=    0.0000000000 
LOCALIZATION SUM CONVERGED

------------------------------------------------------
AUGMENTED HESSIAN OPTIMIZATION OF FOSTER-BOYS ORBITALS
------------------------------------------------------

Spin operator:           0
Orbital window:          1 to 2
Number of iterations:    128
Gradient tolerance:      1.000e-06
Number of pairs:         1
Davidson threshold:      2000
Diagonalization method:  LAPACK
Iter:    0   L: 0.9228778124   Grad. norm: 9.552927e-17
   *** Likely close to a maximum now. ***
       Augmented Hessian eigenvalues:  1.24e-33 -7.38e+00
Iter:    1   L: 0.9228778124   Grad. norm: 6.310887e-30
LOCALIZATION HAS CONVERGED.

Eigenvalues of the Hessian:
  0 -7.383e+00


--------------------------------------------------------------------------------
                    LOCALIZED MOLECULAR ORBITAL COMPOSITIONS
--------------------------------------------------------------------------------

The Mulliken populations for each LMO on each atom are computed
The LMO`s will be ordered according to atom index and type
  (A) Strongly localized MO`s have populations of >=0.950 on one atom
  (B) Two center bond orbitals have populations of >=0.850 on two atoms
  (C) Other MO`s are considered to be `delocalized`

FOUND  -   2 strongly local MO`s
       -   0 two center bond MO`s
       -   0 significantly delocalized MO`s

Rather strongly localized orbitals:
MO   2:   0O  -   1.000000
MO   1:   0O  -   1.000000
Localized MO's were stored in: /home/ubuntu/Shiwei/qm9_reaction_eng/qm9_orca_work/qm9_orca_work_elem/o/o_ccsdt_def2svp.loc

------------------------------------------------------------------------------
                           ORCA ORBITAL LOCALIZATION
------------------------------------------------------------------------------

Input orbitals are from                  ... /home/ubuntu/Shiwei/qm9_reaction_eng/qm9_orca_work/qm9_orca_work_elem/o/o_ccsdt_def2svp.loc
Output orbitals are to                   ... /home/ubuntu/Shiwei/qm9_reaction_eng/qm9_orca_work/qm9_orca_work_elem/o/o_ccsdt_def2svp.loc
Max. number of iterations                ... 128
Localizations seeded randomly            ... off
Convergence tolerance                    ... 1.000e-06
Using relative localization threshhold   ... 1.000e-08
Threshold for strong local MOs           ... 9.500e-01
Threshold for bond MOs                   ... 8.500e-01
Operator                                 ... 0
Orbital range for localization           ... 3 to 4
Localization criterion                   ... FOSTER-BOYS (AUGMENTED HESSIAN)
Doing the dipole integrals     ... o.k.
Initial value of the localization sum :     0.000000
ITERATION   0 : L=    0.0000000000 DL=  0.00e+00 (AVERGE_DL)=    0.0000000000 
LOCALIZATION SUM CONVERGED

------------------------------------------------------
AUGMENTED HESSIAN OPTIMIZATION OF FOSTER-BOYS ORBITALS
------------------------------------------------------

Spin operator:           0
Orbital window:          3 to 4
Number of iterations:    128
Gradient tolerance:      1.000e-06
Number of pairs:         1
Davidson threshold:      2000
Diagonalization method:  LAPACK
Iter:    0   L: 0.0000000000   Grad. norm: 1.916522e-29
   *** Only (near) zero eigenvalues found. ***
LOCALIZATION HAS CONVERGED.

Eigenvalues of the Hessian:
  0 -2.396e-28


--------------------------------------------------------------------------------
                    LOCALIZED MOLECULAR ORBITAL COMPOSITIONS
--------------------------------------------------------------------------------

The Mulliken populations for each LMO on each atom are computed
The LMO`s will be ordered according to atom index and type
  (A) Strongly localized MO`s have populations of >=0.950 on one atom
  (B) Two center bond orbitals have populations of >=0.850 on two atoms
  (C) Other MO`s are considered to be `delocalized`

FOUND  -   2 strongly local MO`s
       -   0 two center bond MO`s
       -   0 significantly delocalized MO`s

Rather strongly localized orbitals:
MO   4:   0O  -   1.000000
MO   3:   0O  -   1.000000
Localized MO's were stored in: /home/ubuntu/Shiwei/qm9_reaction_eng/qm9_orca_work/qm9_orca_work_elem/o/o_ccsdt_def2svp.loc

Localizing the core orbitals
------------------------------------------------------------------------------
                           ORCA ORBITAL LOCALIZATION
------------------------------------------------------------------------------

Input orbitals are from                  ... /home/ubuntu/Shiwei/qm9_reaction_eng/qm9_orca_work/qm9_orca_work_elem/o/o_ccsdt_def2svp.loc
Output orbitals are to                   ... /home/ubuntu/Shiwei/qm9_reaction_eng/qm9_orca_work/qm9_orca_work_elem/o/o_ccsdt_def2svp.loc
Max. number of iterations                ... 128
Localizations seeded randomly            ... off
Convergence tolerance                    ... 1.000e-06
Using relative localization threshhold   ... 1.000e-08
Threshold for strong local MOs           ... 9.500e-01
Threshold for bond MOs                   ... 8.500e-01
Operator                                 ... 0
Orbital range for localization           ... 0 to 0
Localization criterion                   ... FOSTER-BOYS (AUGMENTED HESSIAN)
Doing the dipole integrals     ... o.k.

ORCA_LOC: ONLY ONE ORBITAL - SKIPPING LOCALIZATION


--------------------------------------------------------------------------------
                    LOCALIZED MOLECULAR ORBITAL COMPOSITIONS
--------------------------------------------------------------------------------

The Mulliken populations for each LMO on each atom are computed
The LMO`s will be ordered according to atom index and type
  (A) Strongly localized MO`s have populations of >=0.950 on one atom
  (B) Two center bond orbitals have populations of >=0.850 on two atoms
  (C) Other MO`s are considered to be `delocalized`

FOUND  -   1 strongly local MO`s
       -   0 two center bond MO`s
       -   0 significantly delocalized MO`s

Rather strongly localized orbitals:
MO   0:   0O  -   1.000000
Localized MO's were stored in: /home/ubuntu/Shiwei/qm9_reaction_eng/qm9_orca_work/qm9_orca_work_elem/o/o_ccsdt_def2svp.loc

Re-Reading QRO orbitals for the actual calculation
  ... duplicating orbitals and energies 
  ... adjusting occupation numbers
Warning: reference  - re-canonicalizations have been set to INT 1 VIRT 1
Warning: internal orbitals are localized - no re-canonicalization of internal orbitals
Warning: UsePNO is turned on - no re-canonicalization of internal and virtual orbitals
Fock densities were made 

--------------
DLPNO SETTINGS
--------------

TCutMKN:           1.000e-03
TCutPAO:           1.000e-03
TCutPNO:           3.330e-07
TCutPNOSingles:    9.990e-09
TCutPAOExt:        1.000e-01
TCutPairs:         1.000e-06
TCutPre:           1.000e-08
TCutDOij:          1.000e-05
PAO overlap thresh 1.000e-08
Number of singly-occupied orbitals: 2
TCutTNO:           1.000e-09
TCutMP2Pairs:      1.000e-07
TCutDOStrong:      2.000e-02
TCutDOWeak:        4.000e-02
TCutMKNStrong:     1.000e-02
TCutMKNWeak:       1.000e-01
NTCutTNO:          1
Using PNOs for Singles Fock computation
--------------------------
Dim 14, Dim + NT + NS 16
Constructing RI-JK Fock for ROHF like references using UHF and RHF codes!

--------------------------
UNRESTRICTED FOCK OPERATOR
--------------------------


--------------------------
CLOSED-SHELL FOCK OPERATOR
--------------------------

Calculating differential overlap integrals (occ,PAO) ... ok
 >> Construction of the PNO with the Koopmans (K)-matrix << 
Entering the RI transformation section

-----------------
RI-TRANSFORMATION (AUX index driven)
-----------------

Dimension of the orbital-basis         ... 14
Dimension of the aux-basis             ... 48
Transformation of internal MOs         ...    3-   4
Number Format for Storage              ... Double (8 Byte)
Integral mode                          ... Direct

First Phase: integral generation and transformation of MO indices
  Aux angular momentum 0               ... done (    0.000 sec)
  Aux angular momentum 1               ... done (    0.000 sec)
  Aux angular momentum 2               ... done (    0.000 sec)
  Aux angular momentum 3               ... done (    0.000 sec)
Closing buffer VIJ ( 0.00 GB; CompressionRatio= 0.67)
  Phase 1 completed in     0.026 sec
Second Phase: sorting and transformation of aux index

IJ-Transformation
Memory available                       ... 8000 MB 
Max. # MO pairs treated in a batch     ... 2    
# of internal orbitals                 ... 2
# batches for internal orbitals        ... 1
Closing buffer IJV ( 0.00 GB; CompressionRatio= 0.97)
(ij|v) transformation done in     0.000 sec

  Phase 2 completed in     0.000 sec
RI-Integral transformation completed in     0.027 sec

-----------------------
RI-FORMATION OF (ij|kl)
-----------------------

Max core memory to be used            ... 8000 MB
Memory needed per MO pair             ...   0.0 MB
# of MO pairs included in trafo       ... 3
# of MO pairs treated in a batch      ... 3
# of batches needed                   ... 1
Data format used                      ... DOUBLE
 done (    0.000 sec)
Closing buffer JIJ ( 0.00 GB; CompressionRatio= 0.67)
(ij|kl) transformation completed in     0.000 sec
     ... leaving the RI transformation section
 >> 4-active ERIs are generated & stored in-core fast memory 
 >> End construction..
F12 correction will NOT be calculated
 >>>>>>>>>>>>>>>>>>>>>>>>>>>>>>>>>>>>> 
       Dipole-based Prescreening       
 <<<<<<<<<<<<<<<<<<<<<<<<<<<<<<<<<<<<< 
Threshold for domain construction in prescreening:
   TCutDO    ...     1.0e-02
--------------------------
ELECTRON PAIR PRESCREENING
--------------------------

done (average of    0 OSVs/MO)
PAO based multipole pair screening          .... used
   TCutDOij = 1.000000e-05
   TCutPre  = 1.000000e-08
 done

sum of pair energies estimated for screened out pairs ...       0.000000000000 Eh
Timings for the prescreening procedure:
  Maps                          ...        0.000 sec
  nonredundant PAO construction ...        0.000 sec
  Dipole prescreening           ...        0.000 sec
  Total:                        ...        0.000 sec
                                                           
  __   __        __   ___     __        ___  __   __       
 /  ` |__) |  | |  \ |__     / _` |  | |__  /__` /__`     
 \__, |  \ \__/ |__/ |___    \__> \__/ |___ .__/ .__/ 
                                                           

Parameters for the crude guess:
   TScaleDOMP2PreScr   : 2.000e+00
   TScaleMKNMP2PreScr  : 1.000e+01
   TScalePNOMP2PreScr  : 1.000e+00
   TScalePairsMP2PreScr: 1.000e+00
   PAO overlap thresh    1.000e-08
Thresholds for map construction and integral transformation for crude MP2:
   TCutMKN                    ...     1.0e-02
   TCutDO                     ...     2.0e-02
   TCutPairs                  ...     1.0e-06
   TCutPairs_CrudeMP2         ...     1.0e-06
   TCutPNO_CrudeMP2           ...     3.3e-07
   TCutPNOSingles_CrudeMP2    ...     1.0e-08

CRUDE: Average # of AOs per PAO                   ...    14.0
CRUDE: Average # of atoms per PAO                 ...     1.0
CRUDE: Average # of atoms per a pair domain       ...    1.00
CRUDE: Average # of atoms per AUX domain          ...    1.00
CRUDE: Average # of atoms per a pair AUX domain   ...    1.00

 * Extended Maps .. 
CRUDE: Average # of PAOs (Atoms) per Occ          ...     1.0
CRUDE: Average # of PAOs (AOs) per Occ            ...    16.0

 * Trafo Maps .. 
CRUDE: Average # of PAOs (Atoms) per Occ (Trafo)  ...     1.0
CRUDE: Average # of PAOs (AOs) per Occ (Trafo)    ...    16.0
CRUDE: Average # of AUX (Atoms) per Occ (Trafo)   ...     1.0
CRUDE: Average # of AUX (AOs) per Occ (Trafo)     ...    48.0

ok
Calling local trafo                  ...--------------------------------
LOCAL RI TRANSFORMATION (IAVPAO)
--------------------------------

Orbital window:       1 to 4
Number of PAOs:      16
Basis functions:     14 (6 shells)
Aux. functions:      48 (16 shells)
Use SHARK:           on
Have SHARK:         yes

Processing maps (0.0 sec)
Average map sizes:
   Aux shells -> MOs               4.0
   Aux shells -> PAOs             16.0
   MOs        -> AO shells         6.0
   PAOs       -> AO shells         6.0

Calculating integrals (0.0 sec, 0.024 MB)
Sorting integrals (0.0 sec, 0.023 MB)
Total time for the integral transformation: 0.0 sec
ok (   0.0 sec)

-----------------------------------------
   _  _______   __    ___  _  ______     
  / |/ / __/ | / /___/ _ \/ |/ / __ \  
 /    / _/ | |/ /___/ ___/    / /_/ /    
/_/|_/___/ |___/   /_/  /_/|_/\____/    
                                         
                for open-shell molecules 
-----------------------------------------


 ==> UMP guess in NEV-PNO space 

Truncation parameters                       .... 
    PAOOverlapThresh     =        1.000e-08
Pair selection                          .... not used
    TCutPairs            =        1.000e-06
    TCutMKN              =        1.000e-02
    TCutDO               =        1.000e-02
    TCutCMO              =        1.000e-03
    TCutCPAO             =        1.000e-03
    TCutPNO              =        3.330e-07
    TScaleTCutPNO_SS     =        1.000e+00
    TScaleTCutPNO_SD     =        1.000e+00
    TScalePNO_Core       =        1.000e-02
    TCutDO_Crude         =        2.000e-02
    TCutMKN_Crude        =        1.000e-02
    TCutPairs_Crude      =        1.000e-06
    TCutPNO_Crude        =        3.330e-07
    TCutCMO              =        1.000e-03
    TCutCPAO             =        1.000e-03
Spin component scaling in ijab excitation            .... not used

Average number of atoms per AUX Domain:
   Single domains:    1.00
   Pair domains:      1.00
Average number of atoms per PAO Domain:
   Single domains:    1.00
   Pair domains:      1.00
Formation of guess energy and open-shell PNO.

NEV-PNO operators..
  E(ij->ab)
  E(ip->ab)
  E(pq->ab)
  E(ij->pq)
  E(pq->ra)
  E(ip->qr)
  E(ip->aq) and E(ip->qa)

 Norm of Semi-Internal Fock Operators ...   0.0001037705
  ==> Semi-internal excitations detected 

   .... Finished loop over pairs

                       ===========================
                         12 OF   12 PAIRS ARE KEPT CC PAIRS
                          0 OF   12 PAIRS ARE KEPT PT2 PAIRS
                          0 OF   12 PAIRS ARE SKIPPED
                       ===========================

 Initial PAO correlation energy (all pairs)    ...  -0.1071317761 Eh
 Energy constituents in PAO basis (Eh):
  | Vijab(+0) ...  -0.0321200651
  | Viab (-1) ...  -0.0371064625
  | Vab  (-2) ...  -0.0052290242
  | Va   (-1) ...  -0.0000281362
  | Vija (+1) ...  -0.0096762084
  | Via  (+0) ...  -0.0229718797
 Initial PNO correlation energy                ...  -0.1070157000 Eh
 Energy constituents in PNO basis (Eh):
  | Vijab(+0) ...  -0.0321200651 (err=  0.0000000000)
  | Viab (-1) ...  -0.0369903864 (err=  0.0001160760)
  | Vab  (-2) ...  -0.0052290242 (err=  0.0000000000)
  | Va   (-1) ...  -0.0000281362 (err=  0.0000000000)
  | Vija (+1) ...  -0.0096762084 (err=  0.0000000000)
  | Via  (+0) ...  -0.0229718797 (err= -0.0000000000)
 Sum of total truncation errors ...   0.0001160760 Eh
  | Pair screening ...   0.0000000000 Eh
  | PNO truncation ...   0.0001160760 Eh

 UMP2 correlation energy (PAO) ...  -0.1020259284
  | alpha-alpha ...  -0.0221661749 (NP_aa=    6)
  | alpha-beta  ...  -0.0766320091 (NP_ab=    8)
  | beta -beta  ...  -0.0032277443 (NP_bb=    1)
 UMP2 correlation energy (PNO) ...  -0.1019092125
  | alpha-alpha ...  -0.0220884432 (err=  0.0000777317, NP_aa=    6)
  | alpha-beta  ...  -0.0765930249 (err=  0.0000389842, NP_ab=    8)
  | beta -beta  ...  -0.0032277443 (err=  0.0000000000, NP_bb=    1)
 Sum of total UMP2 truncation errors ...   0.0001167159 Eh
  | Pair screening ...   0.0000000000 Eh
  | PNO truncation ...   0.0001167159 Eh
 Timing for NEV-PNO construction (sec.)
  | Intermediate construction  ..            0.000
  | Amplitude construction     ..            0.000
  | Total time                 ..            0.001
 Making pair pair interaction lists ...      
Pair pair interaction statistics
Nr. of pairs:                        12
Nr. of Singles:                       4
Average (per pair domain)               (Total):
Atoms:                              1.0 (1)
PNOs:                              10.2
PAOs:                   16.0 (16)
Aux functions:                     48.0 (48)
AuxAtoms:                           1.0 (1)
EXT1 basis functions:              16.0 (16)
Interacting Pairs:                 12.0 (12)
Interacting Pairs - Singles:        4.0 (4)
Average (per Single domain):
Atoms (Singles):                    1.0 (1)
PNOs (Singles):                    11.0
Basis functions (Singles):         16.0 (16)
Interacting Singles - Singles:      4.0 (4)
Interacting Singles - Pairs:       12.0 (12)
ok
                                                 
  ___         ___     __        ___  __   __     
 |__  | |\ | |__     / _` |  | |__  /__` /__`   
 |    | | \| |___    \__> \__/ |___ .__/ .__/ 
                                                 

Thresholds for map construction and integral transformation:
   TCutMKN   ...     1.0e-03
   TCutDO    ...     1.0e-02
   TCutCMO   ...     1.0e-03
   TCutCPAO  ...     1.0e-03

Thresholds for map construction and integral transformation for strong Triples:
   TCutMKN   ...     1.0e-02
   TCutDO    ...     2.0e-02
   TCutCMO   ...     1.0e-03
   TCutCPAO  ...     1.0e-03

Thresholds for map construction and integral transformation for weak Triples:
   TCutMKN   ...     1.0e-01
   TCutDO    ...     4.0e-02
   TCutCMO   ...     1.0e-03
   TCutCPAO  ...     1.0e-03

N(Atoms)=    1  N(Basis)=  14 N(Aux)=  48
MO to PAO maps        N(elements)=    4  Average functions=  16.0 shells=   6.0 atoms=   1.0
MO to AO maps         N(elements)=    4  Average functions=  14.0 shells=   6.0 atoms=   1.0
PAO to AO maps        N(elements)=   16  Average functions=  14.0 shells=   6.0 atoms=   1.0
MO to AUX maps        N(elements)=    4  Average functions=  48.0 shells=  16.0 atoms=   1.0
After extension:
Ext. MO to PAO maps   N(elements)=    4  Average functions=  16.0 shells=   6.0 atoms=   1.0
Ext. MO to AUX maps   N(elements)=    4  Average functions=  48.0 shells=  16.0 atoms=   1.0
--------------------------------
LOCAL RI TRANSFORMATION (IAVPAO)
--------------------------------

Orbital window:       1 to 4
Number of PAOs:      16
Basis functions:     14 (6 shells)
Aux. functions:      48 (16 shells)
Use SHARK:           on
Have SHARK:         yes

Processing maps (0.0 sec)
Average map sizes:
   Aux shells -> MOs               4.0
   Aux shells -> PAOs             16.0
   MOs        -> AO shells         6.0
   PAOs       -> AO shells         6.0

Calculating integrals (0.0 sec, 0.024 MB)
Sorting integrals (0.0 sec, 0.023 MB)
Total time for the integral transformation: 0.0 sec

 ==> UMP guess in NEV-PNO space 

Truncation parameters                       .... 
    PAOOverlapThresh     =        1.000e-08
Pair selection                          .... not used
    TCutPairs            =        1.000e-06
    TCutMKN              =        1.000e-03
    TCutDO               =        1.000e-02
    TCutCMO              =        1.000e-03
    TCutCPAO             =        1.000e-03
    TCutPNO              =        3.330e-07
    TScaleTCutPNO_SS     =        1.000e+00
    TScaleTCutPNO_SD     =        1.000e+00
    TScalePNO_Core       =        1.000e-02
    TScaleTCutPairs_Somo =        3.300e-01
    TScaleTCutPairs_Core =        1.000e+00
    TCutPairs_MP2        =        1.000e-07
    TCutCMO              =        1.000e-03
    TCutCPAO             =        1.000e-03
Spin component scaling in ijab excitation            .... not used

Average number of atoms per AUX Domain:
   Single domains:    1.00
   Pair domains:      1.00
Average number of atoms per PAO Domain:
   Single domains:    1.00
   Pair domains:      1.00
Formation of guess energy and open-shell PNO.

NEV-PNO operators..
  E(ij->ab)
  E(ip->ab)
  E(pq->ab)
  E(ij->pq)
  E(pq->ra)
  E(ip->qr)
  E(ip->aq) and E(ip->qa)

   .... Finished loop over pairs

  - Occupation number analysis for DOUBLES-pairs:

   Orbital Indices     % trace(D) 
  -----------------------------------
  (    1,     1): 100.000000000000 % (IJ)
  (    2,     1): 100.000000000000 % (IJ)
  (    2,     2): 100.000000000000 % (IJ)
  (    3,     1): 100.000000000000 % (IP)
  (    3,     2): 100.000000000000 % (IP)
  (    4,     1): 100.000000000000 % (IP)
  (    4,     2): 100.000000000000 % (IP)
  (    3,     3): 100.000000000000 % (PQ)
  (    4,     3): 100.000000000000 % (PQ)
  (    4,     4): 100.000000000000 % (PQ)

  - Occupation number analysis for SINGLES-pairs:

   Orbital Index       % trace(D) 
  -----------------------------------
  (    1): 100.000000000000 % (IJ)
  (    2): 100.000000000000 % (IJ)
  (    3): 100.000000000000 % (IJ)
  (    4): 100.000000000000 % (IJ)

 PNO Occupation Number Statistics: 
  | Av. % of trace(Dij) retained        ... 100.000000000000
  | Av. % of trace(Dip) retained        ... 100.000000000000
  | Av. % of trace(Dpq) retained        ... 100.000000000000
  | sigma^2 in % of trace(Dij) retained ...   1.35e-28
  | sigma^2 in % of trace(Dip) retained ...   5.05e-29
  | sigma^2 in % of trace(Dpq) retained ...   4.04e-28
  | Av. % of trace(Di) retained         ... 100.000000000000
  | Av. % of trace(Dp) retained         ... 100.000000000000
  | sigma^2 in % of trace(Di) retained  ...   2.02e-28
  | sigma^2 in % of trace(Dp) retained  ...   0.00e+00
 Distributions of % trace(Dij) recovered:
  |       >= 99.9  ...     3 (100.0 % of all IJ-pairs)
 Distributions of % trace(Dip) recovered:
  |       >= 99.9  ...     4 (100.0 % of all IP-pairs)
 Distributions of % trace(Dpq) recovered:
  |       >= 99.9  ...     3 (100.0 % of all PQ-pairs)
 Distributions of % trace(Di) recovered :
  |       >= 99.9  ...     2 (100.0 % of all I-pairs )
 Distributions of % trace(Dp) recovered :
  |       >= 99.9  ...     2 (100.0 % of all P-pairs )

                       ===========================
                         12 OF   12 PAIRS ARE KEPT
                       ===========================

 Initial PAO correlation energy (all pairs)    ...  -0.1071317761 Eh
 Energy constituents in PAO basis (Eh):
  | Vijab(+0) ...  -0.0321200651
  | Viab (-1) ...  -0.0371064625
  | Vab  (-2) ...  -0.0052290242
  | Va   (-1) ...  -0.0000281362
  | Vija (+1) ...  -0.0096762084
  | Via  (+0) ...  -0.0229718797
 Initial PNO correlation energy                ...  -0.1070157000 Eh
 Energy constituents in PNO basis (Eh):
  | Vijab(+0) ...  -0.0321200651 (err=  0.0000000000)
  | Viab (-1) ...  -0.0369903864 (err=  0.0001160760)
  | Vab  (-2) ...  -0.0052290242 (err=  0.0000000000)
  | Va   (-1) ...  -0.0000281362 (err=  0.0000000000)
  | Vija (+1) ...  -0.0096762084 (err=  0.0000000000)
  | Via  (+0) ...  -0.0229718797 (err= -0.0000000000)
 Sum of total truncation errors ...   0.0001160760 Eh
  | Pair screening ...   0.0000000000 Eh
  | PNO truncation ...   0.0001160760 Eh

 UMP2 correlation energy (PAO) ...  -0.1020259284
  | alpha-alpha ...  -0.0221661749 (NP_aa=    6)
  | alpha-beta  ...  -0.0766320091 (NP_ab=    8)
  | beta -beta  ...  -0.0032277443 (NP_bb=    1)
 UMP2 correlation energy (PNO) ...  -0.1019092125
  | alpha-alpha ...  -0.0220884432 (err=  0.0000777317, NP_aa=    6)
  | alpha-beta  ...  -0.0765930249 (err=  0.0000389842, NP_ab=    8)
  | beta -beta  ...  -0.0032277443 (err=  0.0000000000, NP_bb=    1)
 Sum of total UMP2 truncation errors ...   0.0001167159 Eh
  | Pair screening ...   0.0000000000 Eh
  | PNO truncation ...   0.0001167159 Eh
 Timing for NEV-PNO construction (sec.)
  | Intermediate construction  ..            0.000
  | Amplitude construction     ..            0.000
  | Total time                 ..            0.001
 Making pair pair interaction lists ...      
Pair pair interaction statistics
Nr. of pairs:                        12
Nr. of Singles:                       4
Average (per pair domain)               (Total):
Atoms:                              1.0 (1)
PNOs:                              10.2
PAOs:                   16.0 (16)
Aux functions:                     48.0 (48)
AuxAtoms:                           1.0 (1)
EXT1 basis functions:              16.0 (16)
Interacting Pairs:                 12.0 (12)
Interacting Pairs - Singles:        4.0 (4)
Average (per Single domain):
Atoms (Singles):                    1.0 (1)
PNOs (Singles):                    11.0
Basis functions (Singles):         16.0 (16)
Interacting Singles - Singles:      4.0 (4)
Interacting Singles - Pairs:       12.0 (12)
ok
 Total size for 2-ext PNO integrals ...      0.0 MB
Checking the number of SOMO/SOMO doubles PNOs ...  No PNOs should be truncated!

--------------------------------
LOCAL RI TRANSFORMATION (VABPAO)
--------------------------------

Number of PAOs:      16
Basis functions:     14 (6 shells)
Aux. functions:      48 (16 shells)
Use SHARK:           on

Processing maps (0.0 sec)
Average map sizes:
   Aux shells -> PAOs             16.0
   PAOs       -> AO shells         6.0

Calculating integrals (0.0 sec, 0.094 MB)
Finished
ok (   0.0 sec)
-----------------------------
LOCAL RI TRANSFORMATION (IJV)
-----------------------------

Orbital window:       1 to 4
Basis functions:     14 (6 shells)
Aux. functions:      48 (16 shells)
Use SHARK:           on

Processing maps (0.0 sec)
Average map sizes:
   Aux shells -> MOs(i)            4.0
   Aux shells -> MOs(j)            4.0
   MOs        -> AO shells         6.0

Calculating integrals (0.0 sec, 0.006 MB)
Sorting integrals (0.0 sec, 0.006 MB)
Total time for the integral transformation: 0.0 sec
Start of DLPNO_MakePairInteractionInts_RHF_Direct


-------------------------------------
Pair Pair Term precalculation with     
RI-(ij|mn) and (im|jn) transformation  
ON THE FLY                             
-------------------------------------

Max core memory to be used                    ...   8000 MB
Number of batches needed                      ...      1 
Average Memory used per batch                 ...      0 MB
Pair Pair terms per batch                     ...      0 
Total number of pairs                         ...     12 
Memory needed for all IJPairs                 ...      0 MB
   IBatch   1 (of   1)              ... 
Ibatch:  1 (of  1)

number of pairs: 12 
Starting VAB
GOING DOWN TO notP:  0.0 P:  0.0
Starting VIM VJN
Starting VIJ
Done collecting 3-index integrals
done
done (    0.004 sec)
Total EXT                           ...           0.004 sec

Detailed timings: 
Reading/generating VMAT                    ...          0.000 sec
Reading 3-index integrals                  ...          0.000 sec
Reading 3-index IJ integrals               ...          0.000 sec
Reading 3-index IM integrals               ...          0.000 sec
Reading 3-index MN integrals               ...          0.000 sec
Reading 3-index PAO integrals              ...          0.000 sec
Sorting of data (for reading)              ...          0.001 sec
Sorting of data (for reading) - only PREP  ...          0.000 sec
Sorting of data (for reading) - only MN    ...          0.000 sec
Sorting of data (for reading) - only IM    ...          0.000 sec
Sorting of data (for reading) - only IJ    ...          0.000 sec
Sorting of data (for intermediates)        ...          0.000 sec
Sorting of data (for writing)              ...          0.000 sec
Get Pair1 ...          0.000 sec
Get Pair2 ...          0.000 sec
Get Pair3 ...          0.000 sec
Get Pair4 ...          0.000 sec
Get Pair5 ...          0.000 sec
Get Pair6 ...          0.000 sec
Orthogonalization of the 3-index integrals ...          0.001 sec
                                        mn ...          0.000 sec
                                        im ...          0.000 sec
                                        jn ...          0.000 sec
                                        ij ...          0.000 sec
Multipl. of 3-index integrals              ...          0.001 sec
                   - only MN PAO to PNO    ...          0.001 sec
                   - only IM/JN PAO to PNO ...          0.000 sec
                   - IM and JN to IMJN     ...          0.000 sec
                   - IJ and MN to IMJN     ...          0.000 sec
GetNewMat              ...          0.000 sec
Generating IJMN (orthog. + mult.)          ...          0.003 sec
Generating IJMN (orthog. + mult.) 1         ...          0.002 sec
Generating IJMN (orthog. + mult.) 2         ...          0.000 sec
Generating IJMN (orthog. + mult.) 3         ...          0.000 sec
Generating IJMN (orthog. + mult.) 4         ...          0.000 sec
Generating IMJN (orthog. + mult.)          ...          0.001 sec
Storing data in files                      ...          0.000 sec
VAB SUM                                    ...          0.002 sec
Sorting 1                                  ...          0.000 sec
Sorting 2                                  ...          0.000          0.000 sec
Sorting 3                                  ...          0.000          0.000 sec
Mult 1                                     ...          0.000 sec
Mult 2                                     ...          0.000          0.000 sec
Copy 1                                     ...          0.000 sec
Copy 2                                     ...          0.000 sec
Copy 3                                     ...          0.000          0.000 sec

IAVPA Available = YES
VABPAO Available= YES
IJV Available   = YES
IJK Available   = NO
PNO3i Available = YES
PNO3j Available = YES
PNO4 Available  = YES
---------------------
RI-PNO TRANSFORMATION
---------------------

Total Number of PNOs                   ...   122
[...]
eaab 1 2 0     0.0000000000
eaab 1 2 1     0.0000000000
eaab 1 2 2     0.0000000000
eaab 1 2 3     0.0000000000
eaab 1 3 0     0.0000000000
eaab 1 3 1     0.0000000000
eaab 1 3 2     0.0000000000
eaab 1 3 3     0.0000000000
eaab 2 0 0    -0.0000839476
eaab 2 0 1    -0.0000247429
eaab 2 0 2     0.0000000000
eaab 2 0 3     0.0000000000
eaab 2 1 0    -0.0000247429
eaab 2 1 1    -0.0000839476
eaab 2 1 2     0.0000000000
eaab 2 1 3     0.0000000000
eaab 2 2 0     0.0000000000
eaab 2 2 1     0.0000000000
eaab 2 2 2     0.0000000000
eaab 2 2 3     0.0000000000
eaab 2 3 0     0.0000000000
eaab 2 3 1     0.0000000000
eaab 2 3 2     0.0000000000
eaab 2 3 3     0.0000000000
eaab 3 0 0    -0.0000839476
eaab 3 0 1    -0.0000247429
eaab 3 0 2     0.0000000000
eaab 3 0 3     0.0000000000
eaab 3 1 0    -0.0000247429
eaab 3 1 1    -0.0000839476
eaab 3 1 2     0.0000000000
eaab 3 1 3     0.0000000000
eaab 3 2 0    -0.0000657713
eaab 3 2 1    -0.0000657713
eaab 3 2 2     0.0000000000
eaab 3 2 3     0.0000000000
eaab 3 3 0     0.0000000000
eaab 3 3 1     0.0000000000
eaab 3 3 2     0.0000000000
eaab 3 3 3     0.0000000000
eabb 0 0 0     0.0000000000
eabb 0 0 1     0.0000000000
eabb 0 0 2     0.0000000000
eabb 0 0 3     0.0000000000
eabb 0 1 0    -0.0000366282
eabb 0 1 1     0.0000000000
eabb 0 1 2     0.0000000000
eabb 0 1 3     0.0000000000
eabb 0 2 0     0.0000000000
eabb 0 2 1     0.0000000000
eabb 0 2 2     0.0000000000
eabb 0 2 3     0.0000000000
eabb 0 3 0     0.0000000000
eabb 0 3 1     0.0000000000
eabb 0 3 2     0.0000000000
eabb 0 3 3     0.0000000000
eabb 1 0 0     0.0000000000
eabb 1 0 1     0.0000000000
eabb 1 0 2     0.0000000000
eabb 1 0 3     0.0000000000
eabb 1 1 0    -0.0000366282
eabb 1 1 1     0.0000000000
eabb 1 1 2     0.0000000000
eabb 1 1 3     0.0000000000
eabb 1 2 0     0.0000000000
eabb 1 2 1     0.0000000000
eabb 1 2 2     0.0000000000
eabb 1 2 3     0.0000000000
eabb 1 3 0     0.0000000000
eabb 1 3 1     0.0000000000
eabb 1 3 2     0.0000000000
eabb 1 3 3     0.0000000000
eabb 2 0 0     0.0000000000
eabb 2 0 1     0.0000000000
eabb 2 0 2     0.0000000000
eabb 2 0 3     0.0000000000
eabb 2 1 0    -0.0000426896
eabb 2 1 1     0.0000000000
eabb 2 1 2     0.0000000000
eabb 2 1 3     0.0000000000
eabb 2 2 0     0.0000000000
eabb 2 2 1     0.0000000000
eabb 2 2 2     0.0000000000
eabb 2 2 3     0.0000000000
eabb 2 3 0     0.0000000000
eabb 2 3 1     0.0000000000
eabb 2 3 2     0.0000000000
eabb 2 3 3     0.0000000000
eabb 3 0 0     0.0000000000
eabb 3 0 1     0.0000000000
eabb 3 0 2     0.0000000000
eabb 3 0 3     0.0000000000
eabb 3 1 0    -0.0000426896
eabb 3 1 1     0.0000000000
eabb 3 1 2     0.0000000000
eabb 3 1 3     0.0000000000
eabb 3 2 0     0.0000000000
eabb 3 2 1     0.0000000000
eabb 3 2 2     0.0000000000
eabb 3 2 3     0.0000000000
eabb 3 3 0     0.0000000000
eabb 3 3 1     0.0000000000
eabb 3 3 2     0.0000000000
eabb 3 3 3     0.0000000000
ebbb 0 0 0     0.0000000000
ebbb 0 0 1     0.0000000000
ebbb 0 0 2     0.0000000000
ebbb 0 0 3     0.0000000000
ebbb 0 1 0     0.0000000000
ebbb 0 1 1     0.0000000000
ebbb 0 1 2     0.0000000000
ebbb 0 1 3     0.0000000000
ebbb 0 2 0     0.0000000000
ebbb 0 2 1     0.0000000000
ebbb 0 2 2     0.0000000000
ebbb 0 2 3     0.0000000000
ebbb 0 3 0     0.0000000000
ebbb 0 3 1     0.0000000000
ebbb 0 3 2     0.0000000000
ebbb 0 3 3     0.0000000000
ebbb 1 0 0     0.0000000000
ebbb 1 0 1     0.0000000000
ebbb 1 0 2     0.0000000000
ebbb 1 0 3     0.0000000000
ebbb 1 1 0     0.0000000000
ebbb 1 1 1     0.0000000000
ebbb 1 1 2     0.0000000000
ebbb 1 1 3     0.0000000000
ebbb 1 2 0     0.0000000000
ebbb 1 2 1     0.0000000000
ebbb 1 2 2     0.0000000000
ebbb 1 2 3     0.0000000000
ebbb 1 3 0     0.0000000000
ebbb 1 3 1     0.0000000000
ebbb 1 3 2     0.0000000000
ebbb 1 3 3     0.0000000000
ebbb 2 0 0     0.0000000000
ebbb 2 0 1     0.0000000000
ebbb 2 0 2     0.0000000000
ebbb 2 0 3     0.0000000000
ebbb 2 1 0     0.0000000000
ebbb 2 1 1     0.0000000000
ebbb 2 1 2     0.0000000000
ebbb 2 1 3     0.0000000000
ebbb 2 2 0     0.0000000000
ebbb 2 2 1     0.0000000000
ebbb 2 2 2     0.0000000000
ebbb 2 2 3     0.0000000000
ebbb 2 3 0     0.0000000000
ebbb 2 3 1     0.0000000000
ebbb 2 3 2     0.0000000000
ebbb 2 3 3     0.0000000000
ebbb 3 0 0     0.0000000000
ebbb 3 0 1     0.0000000000
ebbb 3 0 2     0.0000000000
ebbb 3 0 3     0.0000000000
ebbb 3 1 0     0.0000000000
ebbb 3 1 1     0.0000000000
ebbb 3 1 2     0.0000000000
ebbb 3 1 3     0.0000000000
ebbb 3 2 0     0.0000000000
ebbb 3 2 1     0.0000000000
ebbb 3 2 2     0.0000000000
ebbb 3 2 3     0.0000000000
ebbb 3 3 0     0.0000000000
ebbb 3 3 1     0.0000000000
ebbb 3 3 2     0.0000000000
ebbb 3 3 3     0.0000000000
E_DDD  -0.000148327326
E_SDD  -0.000542929120
E_SSD  -0.000158141169
E_SSS   0.000000000000

Triples timings:
Total time                      ...     0.002 sec

Triples List generation         ...     0.000 sec
TNO generation                  ...     0.001 sec
Pair density generation         ...     0.000 sec
Look up tables                  ...     0.000 sec
Generating 3-index integrals    ...     0.001 sec
Make 4-ind.int. from 3-ind.int  ...     0.000 sec
Projecting amplitudes (D + S)   ...     0.000 sec
Sorting integrals for spin cases...     0.000 sec
Calculate W0/W1                 ...     0.000 sec
T0 Energy contr.(sum over a,b,c)...     0.000 sec

Everything after 3-index in T0  ...     0.001 sec

Energy contribution AAA         ...     0.000 sec
Energy contribution AAB         ...     0.000 sec
Energy contribution ABB         ...     0.000 sec
Energy contribution BBB         ...     0.000 sec
prep                ...     0.000 sec
makeTTNO            ...     0.000 sec
copyij              ...     0.000 sec
copyil              ...     0.000 sec
transposeij         ...     0.000 sec
newMatInDoubleProj  ...     0.000 sec
BlasInDoubleProj    ...     0.000 sec
ProjSingles         ...     0.000 sec
ProjDoubles         ...     0.000 sec
overall Doubles for projection      ... 168
used Doubles for projection         ... 168


Number of Triples   (0, 1, 2, 3 weak pairs; overall):     14       0       0       0  (    14)
Number of Atoms     (0, 1, 2, 3 weak pairs; overall):    1.0     0.0     0.0     0.0  (     1)
Number of PAOs      (0, 1, 2, 3 weak pairs; overall):   16.0     0.0     0.0     0.0  (    14)
Number of AuxFcns   (0, 1, 2, 3 weak pairs; overall):   48.0     0.0     0.0     0.0  (    48)
Number of TNOs (0, 1, 2, 3 weak pairs         ):   11.0     0.0     0.0     0.0
Aver. Number of NTNO, Atoms, PAOs, AuxFcns / Triples:     14    11.0     1.0    16.0    48.0
Load balancing information:
Total time                    ...     0.002 sec

Triples Correction (T)                     ...     -0.000849398
    alpha-alpha-alpha ... -0.000049386 (  5.8%)
    alpha-alpha-beta  ... -0.000641376 ( 75.5%)
    alpha-beta -beta  ... -0.000158636 ( 18.7%)
    beta -beta -beta  ...  0.000000000 ( -0.0%)
Final correlation energy                   ...     -0.122385140
E(CCSD)                                    ...    -74.836511442
E(CCSD(T))                                 ...    -74.837360840

----------------------------
STATISTICS FOR PAIR-ENERGIES
----------------------------
(AB;    1,    2) UMP= -0.0029222100 UCC= -0.0034389764, ratio=1.18
(AA;    2,    1) UMP= -0.0014173374 UCC= -0.0014247830, ratio=1.01
(AB;    2,    1) UMP= -0.0029222100 UCC= -0.0034389764, ratio=1.18
(BB;    2,    1) UMP= -0.0032277443 UCC= -0.0030459568, ratio=0.94
(AA;    4,    3) UMP= -0.0061910634 UCC= -0.0063959691, ratio=1.03
(AA;    4,    2) UMP= -0.0036394435 UCC= -0.0039087956, ratio=1.07
(AB;    4,    2) UMP= -0.0098259834 UCC= -0.0112748267, ratio=1.15
(AA;    3,    2) UMP= -0.0036394435 UCC= -0.0039087956, ratio=1.07
(AB;    3,    2) UMP= -0.0098259834 UCC= -0.0112748267, ratio=1.15
(AA;    3,    1) UMP= -0.0036394435 UCC= -0.0039087956, ratio=1.07
(AB;    3,    1) UMP= -0.0098259834 UCC= -0.0112748267, ratio=1.15
(AA;    4,    1) UMP= -0.0036394435 UCC= -0.0039087956, ratio=1.07
(AB;    4,    1) UMP= -0.0098259834 UCC= -0.0112748267, ratio=1.15
(AB;    1,    1) UMP= -0.0157418277 UCC= -0.0194170089, ratio=1.23
(AB;    2,    2) UMP= -0.0157418277 UCC= -0.0194170089, ratio=1.23
Minimum, maximum and average ratios of UMP and CCSD pair-energies ... 0.94, 1.23, 1.11


--------------------------------------------------------------------------------
                                    TIMINGS
--------------------------------------------------------------------------------


Total execution time                   ...        0.257 sec

Localization of occupied MO's          ...        0.031 sec ( 11.9%)
Fock Matrix Formation                  ...        0.001 sec (  0.6%)
Differential overlap integrals         ...        0.007 sec (  2.6%)
Organizing maps                        ...        0.000 sec (  0.1%)
RI 3-index integral generations        ...        0.033 sec ( 13.0%)
RI-PNO integral transformation         ...        0.007 sec (  2.6%)
Initial Guess                          ...        0.007 sec (  2.6%)
DIIS Solver                            ...        0.002 sec (  0.9%)
State Vector Update                    ...        0.000 sec (  0.0%)
Sigma-vector construction              ...        0.037 sec ( 14.5%)
  <D|H|D>(2-ext)                       ...        0.006 sec ( 16.0% of sigma)
  <D|H|D>(4-ext)                       ...        0.001 sec (  3.2% of sigma)
  <D|H|D>(4-ext-corr)                  ...        0.003 sec (  9.3% of sigma)
  CCSD doubles correction              ...        0.001 sec (  3.5% of sigma)
  <S|H|S>                              ...        0.001 sec (  2.8% of sigma)
  <S|H|D>(1-ext)                       ...        0.001 sec (  2.7% of sigma)
  Fock-dressing                        ...        0.007 sec ( 19.7% of sigma)
  (ik|jl)-dressing                     ...        0.003 sec (  7.2% of sigma)
  (ij|ab),(ia|jb)-dressing             ...        0.008 sec ( 20.6% of sigma)
Total Time for computing (T)           ...        0.003 sec (  1.1% of ALL)


Maximum memory used throughout the entire MDCI-calculation: 14.1 MB

-------------------------   --------------------
FINAL SINGLE POINT ENERGY       -74.837360839799
-------------------------   --------------------


------------------------------------------------------------------------------
                              ORCA PROPERTY CALCULATIONS
------------------------------------------------------------------------------

GBWName                                 ... /home/ubuntu/Shiwei/qm9_reaction_eng/qm9_orca_work/qm9_orca_work_elem/o/o_ccsdt_def2svp.gbw
Number of atoms                         ...      1
Number of basis functions               ...     14
Max core memory                         ...   8000 MB

Electric properties:
Dipole moment                           ... YES
Quadrupole moment                       ...  NO
Static polarizability (Dipole/Dipole)   ...  NO
Static polarizability (Dipole/Quad.)    ...  NO
Static polarizability (Quad./Quad.)     ...  NO
Static polarizability (Velocity)        ...  NO

Atomic electric properties:
Dipole moment                           ...  NO
Quadrupole moment                       ...  NO
Static polarizability                   ...  NO

Choice of electric origin               ... Center of mass
Position of electric origin             ...     0.000000     0.000000     0.000000

General magnetic properties:
Magnetizability                         ...  NO

EPR properties:
g-Tensor (aka g-matrix)                 ...  NO
Zero-Field splitting spin-orbit         ...  NO
Zero-field splitting spin-spin          ...  NO
Hyperfine couplings                     ...  NO (   0 nuclei)
Quadrupole couplings                    ...  NO (   0 nuclei)
Contact density                         ...  NO (   0 nuclei)

NMR properties:
Chemical shifts                         ...  NO (   0 nuclei)
Spin-rotation constants                 ...  NO (   0 nuclei)
Spin-spin couplings                     ...  NO (   0 nuclei,    0 pairs)

Choice of magnetic origin               ... GIAO
Position of magnetic origin             ...     0.000000     0.000000     0.000000

Properties with geometric perturbations:
SCF Hessian                             ...  NO
IR spectrum                             ...  NO
VCD spectrum                            ...  NO
X-ray spectroscopy properties:
SCF XES/XAS/RIXS spectra                ...  NO


-------------
DIPOLE MOMENT
-------------

Method             : SCF
Type of density    : Electron Density
Multiplicity       :   3
Irrep              :   0
Energy             :   -74.7200622567083599 Eh
Relativity type    : 
Basis              : AO
                                X                 Y                 Z
Electronic contribution:      0.000000000       0.000000000      -0.000000000
Nuclear contribution   :      0.000000000       0.000000000       0.000000000
                        -----------------------------------------
Total Dipole Moment    :      0.000000000       0.000000000      -0.000000000
                        -----------------------------------------
Magnitude (a.u.)       :      0.000000000
Magnitude (Debye)      :      0.000000000



--------------------
Rotational spectrum 
--------------------
 
Rotational constants in cm-1:             0.000000             0.000000             0.000000 
Rotational constants in MHz :             0.000000             0.000000             0.000000 

Dipole components along the rotational axes: 
x,y,z [a.u.] :     0.000000     0.000000    -0.000000 
x,y,z [Debye]:     0.000000     0.000000    -0.000000 

 

Dipole moment calculation done in   0.0 sec 

Maximum memory used throughout the entire PROP-calculation: 3.4 MB

--------------------------------
SUGGESTED CITATIONS FOR THIS RUN
--------------------------------

Below you find a list of papers that are relevant to this ORCA run
We neither can nor want to force you to cite these papers, but we appreciate if you do
You receive ORCA, which is the product of decades of hard work by many enthusiastic individuals, for free
The only thing we kindly ask in return is that you cite our papers,
We deeply appreciate it, if you show your appreciation for ORCA by not just citing the generic ORCA reference.

Please note that relegating all ORCA citations to the supporting information does *not* help us.
SI sections are not indexed - citations you put there will not count into any citation statistics
But we need these citations in order to attract the funding resources that allow us to do what we are doing

Therefore, if you are a happy ORCA user, please consider citing a few of the papers listed below in the main body of your paper

In addition to the list printed below, the program has created the file /home/ubuntu/Shiwei/qm9_reaction_eng/qm9_orca_work/qm9_orca_work_elem/o/o_ccsdt_def2svp.bibtex that contains the list in bibtex format
You can import this file easily into all common literature databanks and citation aid programs


List of essential papers. We consider these as the minimum necessary citations

  1. Neese,F.
     Software update: the ORCA program system, version 5.0
     WIRES Comput. Molec. Sci., 2022 12(1)e1606
     doi.org/10.1002/wcms.1606

List of papers to cite with high priority. The work reported in these papers was absolutely
necessary for this run to complete.
Our perspective: the developers of density functionals and basis sets usually get cited in chemistry papers
Good! But without the algorithms to do something with them, the functionals or basis sets would not do anything.
Hence, in our opinion, the algorithm design and method developments papers are equally worthy of getting cited

  1. Neese,F.
     An improvement of the resolution of the identity approximation for the formation of the Coulomb matrix
     J. Comp. Chem., 2003 24(14)1740-1747
     doi.org/10.1002/jcc.10318
  2. Kossmann,S.; Neese,F.
     Comparison of two efficient approximate Hartee-Fock approaches
     Chem. Phys. Lett., 2009 481 240-243
     doi.org/10.1016/j.cplett.2009.09.073
  3. Neese,F.; Hansen,A.; Liakos,D.G.
     Efficient and accurate approximations to the local coupled cluster singles doubles method using a truncated pair natural orbital basis
     J. Chem. Phys., 2009 131 064103
     doi.org/10.1063/1.3173827
  4. Neese,F.; Wennmohs,F.; Hansen,A.
     Efficient and accurate local approximations to coupled-electron pair approaches: An attempt to revive the pair natural orbital method
     J. Chem. Phys., 2009 130 114108
     doi.org/10.1063/1.3086717
  5. Riplinger,C.; Neese,F.
     An efficient and near linear scaling pair natural orbital based local coupled cluster method
     J. Chem. Phys., 2013 138(3)Art. No. 034106
     doi.org/10.1063/1.4773581
  6. Riplinger,C.; Sandhoefer,B.; Hansen,A.; Neese,F.
     Natural triple excitations in local coupled cluster calculations with pair natural orbitals
     J. Chem. Phys., 2013 139(13)Art. No. 134101
     doi.org/10.1063/1.4821834
  7. Riplinger,C.; Pinski,P.; Becker,U.; Valeev,E.F.; Neese,F.
     Sparse maps-A systematic infrastructure for reduced-scaling electronic structure methods. II. Linear scaling domain based pair natural orbital coupled cluster theory
     J. Chem. Phys., 2016 144 
     doi.org/10.1063/1.4939030
  8. Bistoni,G.; Riplinger,C.; Minenkov,Y.; Cavallo,L.; Auer,A.A.; Neese,F.
     Treating Subvalence Correlation Effects in Domain Based Pair Natural Orbital Coupled Cluster Calculations: An Out-of-the-Box Approach
     J. Theo. Comp. Chem., 2017 13 3220-3227
     doi.org/10.1021/acs.jctc.7b00352
  9. Saitow,M.; Becker,U.; Riplinger,C.; Valeev,E.; Neese,F.
     A new near-linear scaling, efficient and accurate, open-shell domain-based local pair natural orbital coupled cluster singles and doubles theory
     J. Chem. Phys., 2017 146 164105
 10. Neese,F.
     The SHARK Integral Generation and Digestion System
     J. Comp. Chem., 2022  1-16
     doi.org/10.1002/jcc.26942

List of suggested additional citations. These are papers that are important in the 'surrounding' of 
of this run, or papers that preceded the highly important papers. If you like your results we are grateful for a citation.

  1. Hansen,A.; Liakos,D.G.; Neese,F.
     Efficient and accurate local single reference correlation methods for high-spin open-shell molecules using pair natural orbitals
     J. Chem. Phys., 2011 135 214102
     doi.org/10.1063/1.3663855
  2. Neese,F.
     The ORCA program system
     WIRES Comput. Molec. Sci., 2012 2(1)73-78
     doi.org/10.1002/wcms.81
  3. Neese,F.
     Software update: the ORCA program system, version 4.0
     WIRES Comput. Molec. Sci., 2018 8(1)1-6
     doi.org/10.1002/wcms.1327
  4. Saitow,M.; Neese,F.
     Accurate spin-densities based on the domain-based local pair-natural orbital coupled-cluster theory
     J. Chem. Phys., 2018 149 034104
  5. Neese,F.; Wennmohs,F.; Becker,U.; Riplinger,C.
     The ORCA quantum chemistry program package
     J. Chem. Phys., 2020 152 Art. No. L224108
     doi.org/10.1063/5.0004608

List of optional additional citations

  1. Neese,F.
     Approximate second-order SCF convergence for spin unrestricted wavefunctions
     Chem. Phys. Lett., 2000 325(1-3)93-98
     doi.org/10.1016/s0009-2614(00)00662-x

Timings for individual modules:

Sum of individual times          ...        0.476 sec (=   0.008 min)
Startup calculation              ...        0.057 sec (=   0.001 min)  11.9 %
SCF iterations                   ...        0.076 sec (=   0.001 min)  16.0 %
Property integrals               ...        0.033 sec (=   0.001 min)   6.9 %
Property calculations            ...        0.035 sec (=   0.001 min)   7.3 %
MDCI module                      ...        0.273 sec (=   0.005 min)  57.3 %
Orbital localization             ...        0.003 sec (=   0.000 min)   0.6 %
                             ****ORCA TERMINATED NORMALLY****
TOTAL RUN TIME: 0 days 0 hours 0 minutes 0 seconds 519 msec
