
                                 *****************
                                 * O   R   C   A *
                                 *****************

                                            #,                                       
                                            ###                                      
                                            ####                                     
                                            #####                                    
                                            ######                                   
                                           ########,                                 
                                     ,,################,,,,,                         
                               ,,#################################,,                 
                          ,,##########################################,,             
                       ,#########################################, ''#####,          
                    ,#############################################,,   '####,        
                  ,##################################################,,,,####,       
                ,###########''''           ''''###############################       
              ,#####''   ,,,,##########,,,,          '''####'''          '####       
            ,##' ,,,,###########################,,,                        '##       
           ' ,,###''''                  '''############,,,                           
         ,,##''                                '''############,,,,        ,,,,,,###''
      ,#''                                            '''#######################'''  
     '                                                          ''''####''''         
             ,#######,   #######,   ,#######,      ##                                
            ,#'     '#,  ##    ##  ,#'     '#,    #''#        ,####,   ,####,        
            ##       ##  ##   ,#'  ##            #'  '#       #'       #'  '#        
            ##       ##  #######   ##           ,######,      #####,   #    #        
            '#,     ,#'  ##    ##  '#,     ,#' ,#      #,     #,   #   #,  ,#        
             '#######'   ##     ##  '#######'  #'      '#     '####' # '####'        



                #########################################################
                #                        -***-                          #
                #          Department of theory and spectroscopy        #
                #                                                       #
                #                      Frank Neese                      #
                #                                                       #
                #     Directorship, Architecture, Infrastructure        #
                #                    SHARK, DRIVERS                     #
                #        Core code/Algorithms in most modules           #
                #                                                       #
                #        Max Planck Institute fuer Kohlenforschung      #
                #                Kaiser Wilhelm Platz 1                 #
                #                 D-45470 Muelheim/Ruhr                 #
                #                      Germany                          #
                #                                                       #
                #                  All rights reserved                  #
                #                        -***-                          #
                #########################################################


                         Program Version 6.0.1  -  RELEASE   -


 With contributions from (in alphabetic order):
[Max-Planck-Institut fuer Kohlenforschung]                               
  Daniel Aravena         : Magnetic Suceptibility                        
  Michael Atanasov       : Ab Initio Ligand Field Theory (pilot matlab implementation)
  Alexander A. Auer      : GIAO ZORA, VPT2 properties, NMR spectrum      
  Ute Becker             : All parallelization in ORCA, NUMFREQ, NUMCALC 
  Giovanni Bistoni       : ED, misc. LED, open-shell LED, HFLD           
  Martin Brehm           : Molecular dynamics                            
  Dmytro Bykov           : pre 5.0 version of the SCF Hessian            
  Marcos Casanova-Páez   : Triplet and SCS-CIS(D). UHF-(DLPNO)-IP/EA/STEOM-CCSD. UHF-CVS-IP/STEOM-CCSD   
  Vijay G. Chilkuri      : MRCI spin determinant printing, contributions to CSF-ICE 
  Pauline Colinet        : FMM embedding                                 
  Dipayan Datta          : RHF DLPNO-CCSD density                        
  Achintya Kumar Dutta   : EOM-CC, STEOM-CC                              
  Nicolas Foglia         : Exact transition moments, OPA infrastructure, MCD improvements    
  Dmitry Ganyushin       : Spin-Orbit,Spin-Spin,Magnetic field MRCI      
  Miquel Garcia-Rates    : C-PCM and meta-GGA Hessian, CCSD/C-PCM, Gaussian charge scheme 
  Tiago L. C. Gouveia    : GS-ROHF, GS-ROCIS                             
  Yang Guo               : DLPNO-NEVPT2, F12-NEVPT2, CIM, IAO-localization        
  Andreas Hansen         : Spin unrestricted coupled pair/coupled cluster methods 
  Ingolf Harden          : AUTO-CI MPn and infrastructure                
  Benjamin Helmich-Paris : MC-RPA, TRAH-(SCF,CASSCF), AVAS, COSX integrals, SCF dyn. polar. 
  Lee Huntington         : MR-EOM, pCC                                   
  Robert Izsak           : Overlap fitted RIJCOSX, COSX-SCS-MP3, EOM     
  Riya Kayal             : Wick's Theorem for AUTO-CI, AUTO-CI UHF-CCSDT 
  Emily Kempfer          : AUTO-CI, RHF CISDT and CCSDT                  
  Christian Kollmar      : KDIIS, OOCD, Brueckner-CCSD(T), CCSD density, CASPT2, CASPT2-K, improved NEVPT2 
  Axel Koslowski         : Symmetry handling                             
  Simone Kossmann        : meta-GGA functionals, TD-DFT gradient, OOMP2, (MP2 Hessian; deprecated post 5.0) 
  Lucas Lang             : DCDCAS                                        
  Marvin Lechner         : AUTO-CI (C++ implementation), FIC-MRCC        
  Spencer Leger          : CASSCF response                               
  Dagmar Lenk            : GEPOL surface, SMD, ORCA-2-JSON               
  Dimitrios Liakos       : Extrapolation schemes; Compound Job, initial MDCI parallelization 
  Dimitrios Manganas     : Further ROCIS development; embedding schemes. LFT, Crystal Embedding 
  Dimitrios Pantazis     : SARC Basis sets                               
  Anastasios Papadopoulos: AUTO-CI, single reference methods and gradients 
  Taras Petrenko         : pre 6.0 DFT Hessian and TD-DFT gradient, (ASA, deprecated), ECA, 1-Electron XAS/XES, NRVS 
  Peter Pinski           : DLPNO-MP2, DLPNO-MP2 Gradient                 
  Christoph Reimann      : Effective Core Potentials                     
  Marius Retegan         : Local ZFS, SOC                                
  Christoph Riplinger    : Optimizer, TS searches, QM/MM, DLPNO-CCSD(T), (RO)-DLPNO pert. Triples 
  Michael Roemelt        : Original ROCIS implementation                 
  Masaaki Saitow         : Open-shell DLPNO-CCSD energy and density      
  Barbara Sandhoefer     : DKH picture change effects                    
  Kantharuban Sivalingam : CASSCF convergence/infrastructure, NEVPT2 and variants, FIC-MRCI 
  Bernardo de Souza      : ESD, SOC TD-DFT                               
  Georgi L. Stoychev     : AutoAux, RI-MP2 NMR, DLPNO-MP2 response, X2C  
  Van Anh Tran           : RI-MP2 g-tensors                              
  Willem Van den Heuvel  : Paramagnetic NMR                              
  Zikuan Wang            : NOTCH, Electric field optimization            
  Frank Wennmohs         : Technical directorship and infrastructure     
  Hang Xu                : AUTO-CI-Response properties                   
                                                                         
[FACCTs GmbH]                                                            
  Markus Bursch, Miquel Garcia-Rates, Christoph Riplinger, Bernardo de Souza, Georgi L. Stoychev 
                                                                 
  APM, Basis sets (HGBS, AHGBS, def-TZVP (Ac-Lr), def2-XVPD (La-Lu)), CI-OPT, improved COSX, DLPNO-Multilevel,           
  DOCKER, DRACO, updates on ESD, GOAT, IRC, LR-CPCM, MBIS, meta-GGA TD-DFT gradient, ML-optimized integration grids, 
  MM, NACMEs, nearIR, NEB, NEB-TS, NL-DFT gradient (VV10), 2- and 3-layer-ONIOM, interface openCOSMO-RS, QMMM,   
  Crystal-QMMM, SF, symmetry and pop. for TD-DFT, r2SCAN hybrids, SOLVATOR                                   
                                                                         
[Other institutions]                                                     
  V. Asgeirsson          : NEB                                           
  Christoph Bannwarth    : sTDA-DFT, sTD-DFT, PBEh-3c, B97-3c, D3        
  Sebastian Ehlert       : rSCAN, r2SCAN, r2SCAN-3c, D4, dhf basis sets  
  Marvin Friede          : D4 for Fr, Ra, Ac-Lr                          
  Lars Goerigk           : TD-DFT with DH, B97 family of functionals     
  Stefan Grimme          : VdW corrections, initial TS optimization, DFT functionals, gCP, sTDA/sTD-DF 
  Waldemar Hujo          : DFT-NL                                        
  H. Jonsson             : NEB                                           
  Holger Kruse           : gCP                                           
  Marcel Mueller         : wB97X-3c, vDZP basis set                      
  Hagen Neugebauer       : wr2SCAN                                       
  Tobias Risthaus        : range-separated hybrid DFT                    
  Lukas Wittmann         : regularized MP2, r2SCAN double-hybrids, wr2SCAN        
                                                                         
We gratefully acknowledge several colleagues who have allowed us to      
interface, adapt or use parts of their codes:                            
  Ed Valeev, F. Pavosevic, A. Kumar             : LibInt (2-el integral package), F12 methods 
  Garnet Chan, S. Sharma, J. Yang, R. Olivares  : DMRG                   
  Ulf Ekstrom                                   : XCFun DFT Library      
  Mihaly Kallay                                 : mrcc  (arbitrary order and MRCC methods)
  Frank Weinhold                                : gennbo (NPA and NBO analysis)           
  Simon Mueller                                 : openCOSMO-RS                            
  Christopher J. Cramer and Donald G. Truhlar   : smd solvation model                     
  S Lehtola, MJT Oliveira, MAL Marques          : LibXC Library                           
  Liviu Ungur et al                             : ANISO software                          


 Your calculation uses the libint2 library for the computation of 2-el integrals
 For citations please refer to: http://libint.valeyev.net

 Your ORCA version has been built with support for libXC version: 6.2.2
 For citations please refer to: https://libxc.gitlab.io

 This ORCA versions uses:
   CBLAS   interface :  Fast vector & matrix operations
   LAPACKE interface :  Fast linear algebra routines
   SCALAPACK package :  Parallel linear algebra routines
   Shared memory     :  Shared parallel matrices
   BLAS/LAPACK       :  OpenBLAS 0.3.27  USE64BITINT DYNAMIC_ARCH NO_AFFINITY Haswell SINGLE_THREADED
        Core in use  :  Haswell
   Copyright (c) 2011-2014, The OpenBLAS Project


NOTE: MaxCore=8000 MB was set to SCF,MP2,MDCI,CIPSI,MRCI and CIS
      => If you want to overwrite this, your respective input block should be placed after the MaxCore statement
================================================================================

----- Orbital basis set information -----
Your calculation utilizes the basis: 6-31G**
   H-He, Li-Ne : W. J. Hehre, R. Ditchfield and J.A. Pople, J. Chem. Phys. 56, 2257 (1972).
                 Note: He and Ne are unpublished basis sets taken from the Gaussian program.
                 Note: Li and B from J. D. Dill and J. A. Pople, J. Chem. Phys. 62, 2921 (1975).
   Na - Ar     : M. M. Francl, W. J. Pietro, W. J. Hehre, J. S. Binkley, M. S. Gordon, 
                 D. J. DeFrees and J. A. Pople, J. Chem. Phys. 77, 3654 (1982).
   K - Zn      : V. A. Rassolov, J. A. Pople, M. A. Ratner, and T. L. Windus, J. Chem. Phys. 109, 1223 (1998).

----- AuxC basis set information -----
Your calculation utilizes the auxiliary basis: def2-SVP/C
  H-La, Hf-Rn : A. Hellweg, C. Hattig, S. Hofener and W. Klopper, Theor. Chem. Acc. 117, 587 (2007).
        Ce-Lu : J. Chmela and M. E. Harding, Mol. Phys. (2018).

================================================================================
                                        WARNINGS
                       Please study these warnings very carefully!
================================================================================

WARNING: Old DensityContainer found on disk!
         Will remove this file - 
         If you want to keep old densities, please start your calculation with a different basename. 


WARNING: your system is open-shell and RHF/RKS was chosen
  ===> : WILL SWITCH to UHF/UKS

NOTE: KCOpt==AO/AOBLAs is not implemented for UHF based MDCI. Switching to AOX.
      Do not worry about the results, this is just for your information

WARNING: No MP2 level density has been requested!
         To calculate MP2 level properties use
         %mp2 Density relaxed end
         or
         %mp2 Density unrelaxed end

WARNING: Post HF methods need fully converged wavefunctions
  ===> : Setting SCFConvForced true
         You can overwrite this default with %scf ConvForced false 


WARNING: MDCI localization with Augmented Hessian Foster-Boys
  ===> : Switching off randomization!

WARNING: UseCISUpdate is  only available for RHF calculations...
  ===> : Setting UseCISUpdate = false 

================================================================================
                                       INPUT FILE
================================================================================
NAME = /home/ubuntu/Shiwei/qm9_reaction_eng/qm9_orca_work/qm9_orca_work_elem/o/o_mp2_631gss.inp
|  1> ! RI-MP2 6-31G** def2-SVP/C
|  2> %maxcore 8000
|  3> 
|  4> %method
|  5> FrozenCore FC_ELECTRONS
|  6> end
|  7> 
|  8> %mdci
|  9>   TCutPairs  1e-6
| 10>   printlevel 4
| 11> end
| 12> 
| 13> %loc
| 14> LocMet AHFB
| 15> OCC true
| 16> end
| 17> 
| 18> *xyz 0 3
| 19> O 0.0 0.0 0.0
| 20> *
| 21> 
| 22>                          ****END OF INPUT****
================================================================================

                       ****************************
                       * Single Point Calculation *
                       ****************************

---------------------------------
CARTESIAN COORDINATES (ANGSTROEM)
---------------------------------
  O      0.000000    0.000000    0.000000

----------------------------
CARTESIAN COORDINATES (A.U.)
----------------------------
  NO LB      ZA    FRAG     MASS         X           Y           Z
   0 O     8.0000    0    15.999    0.000000    0.000000    0.000000

--------------------------------
INTERNAL COORDINATES (ANGSTROEM)
--------------------------------
 O      0   0   0     0.000000000000     0.00000000     0.00000000

---------------------------
INTERNAL COORDINATES (A.U.)
---------------------------
 O      0   0   0     0.000000000000     0.00000000     0.00000000

---------------------
BASIS SET INFORMATION
---------------------
There are 1 groups of distinct atoms

 Group   1 Type O   : 10s4p1d contracted to 3s2p1d pattern {631/31/1}

Atom   0O    basis set group =>   1
---------------------------------
AUXILIARY/C BASIS SET INFORMATION
---------------------------------
There are 1 groups of distinct atoms

 Group   1 Type O   : 8s6p5d3f contracted to 6s5p4d1f pattern {311111/21111/2111/3}

Atom   0O    basis set group =>   1

Checking for AutoStart:
The File: /home/ubuntu/Shiwei/qm9_reaction_eng/qm9_orca_work/qm9_orca_work_elem/o/o_mp2_631gss.gbw exists
Trying to determine its content:
     ... Fine, the file contains calculation information
     ... Fine, the calculation information was read
     ... Fine, the file contains a basis set
     ... Fine, the basis set was read
     ... Fine, the file contains a geometry
     ... Fine, the geometry was read
     ... Fine, the file contains a set of orbitals
     ... Fine, the orbitals can be read
     => possible old guess file was deleted
     => GBW file was renamed to GES file
     => GES file is set as startup file
     => Guess is set to MORead
     ... now leaving AutoStart

------------------------------------------------------------------------------
                             ORCA STARTUP CALCULATIONS
------------------------------------------------------------------------------
------------------------------------------------------------------------------
                   ___                                                        
                  /   \      - P O W E R E D   B Y -                         
                 /     \                                                     
                 |  |  |   _    _      __       _____    __    __             
                 |  |  |  | |  | |    /  \     |  _  \  |  |  /  |          
                  \  \/   | |  | |   /    \    | | | |  |  | /  /          
                 / \  \   | |__| |  /  /\  \   | |_| |  |  |/  /          
                |  |  |   |  __  | /  /__\  \  |    /   |      \           
                |  |  |   | |  | | |   __   |  |    \   |  |\   \          
                \     /   | |  | | |  |  |  |  | |\  \  |  | \   \       
                 \___/    |_|  |_| |__|  |__|  |_| \__\ |__|  \__/        
                                                                              
                      - O R C A' S   B I G   F R I E N D -                    
                                      &                                       
                       - I N T E G R A L  F E E D E R -                       
                                                                              
 v1 FN, 2020, v2 2021, v3 2022-2024                                           
------------------------------------------------------------------------------


----------------------
SHARK INTEGRAL PACKAGE
----------------------

Number of atoms                             ...      1
Number of basis functions                   ...     14
Number of shells                            ...      6
Maximum angular momentum                    ...      2
Integral batch strategy                     ... SHARK/LIBINT Hybrid
RI-J (if used) integral strategy            ... SPLIT-RIJ (Revised 2003 algorithm where possible)
Printlevel                                  ...      1
Contraction scheme used                     ... SEGMENTED contraction
Prescreening option                         ... SCHWARTZ
   Thresh                                   ... 1.000e-10
   Tcut                                     ... 1.000e-11
   Tpresel                                  ... 1.000e-11 
Coulomb Range Separation                    ... NOT USED
Exchange Range Separation                   ... NOT USED
Multipole approximations                    ... NOT USED
Finite Nucleus Model                        ... NOT USED
CABS basis                                  ... NOT available
Auxiliary Coulomb fitting basis             ... NOT available
Auxiliary J/K fitting basis                 ... NOT available
Auxiliary Correlation fitting basis         ... AVAILABLE
   # of basis functions in Aux-C            ...     48
   # of shells in Aux-C                     ...     16
   Maximum angular momentum in Aux-C        ...      3
Auxiliary 'external' fitting basis          ... NOT available

Checking pre-screening integrals            ... done (  0.0 sec) Dimension = 6
Check shell pair data                       ... done (  0.0 sec)
Shell pair information
Shell pair cut-off parameter TPreSel        ...   1.0e-11
Total number of shell pairs                 ...        21
Shell pairs after pre-screening             ...        21
Total number of primitive shell pairs       ...       141
Primitive shell pairs kept                  ...       141
          la=0 lb=0:      6 shell pairs
          la=1 lb=0:      6 shell pairs
          la=1 lb=1:      3 shell pairs
          la=2 lb=0:      3 shell pairs
          la=2 lb=1:      2 shell pairs
          la=2 lb=2:      1 shell pairs

Calculating one electron integrals          ... done (  0.0 sec)
Calculating RI/C V-Matrix + Cholesky decomp.... done (  0.0 sec)
Calculating Nuclear repulsion               ... done (  0.0 sec) ENN=      0.000000000000 Eh

Diagonalization of the overlap matrix:
Smallest eigenvalue                        ... 2.333e-01
Time for diagonalization                   ...    0.000 sec
Threshold for overlap eigenvalues          ... 1.000e-07
Number of eigenvalues below threshold      ... 0
Time for construction of square roots      ...    0.000 sec
Total time needed                          ...    0.000 sec

-------------------
DFT GRID GENERATION
-------------------

General Integration Accuracy     IntAcc      ... 4.388
Radial Grid Type                 RadialGrid  ... OptM3 with GC (2021)
Angular Grid (max. ang.)         AngularGrid ... 4 (Lebedev-302)
Angular grid pruning method      GridPruning ... 4 (adaptive)
Weight generation scheme         WeightScheme... mBecke (2022)
Basis function cutoff            BFCut       ... 1.0000e-10
Integration weight cutoff        WCut        ... 1.0000e-14
Partially contracted basis set               ... off
Rotationally invariant grid construction     ... off
Angular grids for H and He will be reduced by one unit

Total number of grid points                  ...     6136
Total number of batches                      ...       96
Average number of points per batch           ...       63
Average number of grid points per atom       ...     6136
Initializing property integral containers    ... done (  0.0 sec)

SHARK setup successfully completed in   0.0 seconds

Maximum memory used throughout the entire STARTUP-calculation: 8.2 MB
-------------------------------------------------------------------------------
                                 ORCA GUESS
                   Start orbitals & Density for SCF / CASSCF
-------------------------------------------------------------------------------

------------
SCF SETTINGS
------------
Hamiltonian:
 Ab initio Hamiltonian  Method          .... Hartree-Fock(GTOs)


General Settings:
 Integral files         IntName         .... /home/ubuntu/Shiwei/qm9_reaction_eng/qm9_orca_work/qm9_orca_work_elem/o/o_mp2_631gss
 Hartree-Fock type      HFTyp           .... UHF
 Total Charge           Charge          ....    0
 Multiplicity           Mult            ....    3
 Number of Electrons    NEL             ....    8
 Basis Dimension        Dim             ....   14
 Nuclear Repulsion      ENuc            ....      0.0000000000 Eh

Convergence Acceleration:
 AO-DIIS                CNVDIIS         .... on
   Start iteration      DIISMaxIt       ....    12
   Startup error        DIISStart       ....  0.200000
   # of expansion vecs  DIISMaxEq       ....     5
   Bias factor          DIISBfac        ....   1.050
   Max. coefficient     DIISMaxC        ....  10.000
 MO-DIIS                CNVKDIIS        .... off
 Trust-Rad. Augm. Hess. CNVTRAH         .... auto
   Auto Start mean grad. ratio tolernc. ....  1.125000
   Auto Start start iteration           ....     1
   Auto Start num. interpolation iter.  ....    10
   Max. Number of Micro iterations      ....    24
   Max. Number of Macro iterations      .... Maxiter - #DIIS iter
   Number of Davidson start vectors     ....     2
   Converg. threshold    (grad. norm)   ....   5.000e-05
   Grad. Scal. Fac. for Micro threshold ....   0.100
   Minimum threshold for Micro iter.    ....   1.000e-02
   NR start threshold (gradient norm)   ....   1.000e-04
   Initial trust radius                 ....   0.400
   Minimum AH scaling param. (alpha)    ....   1.000
   Maximum AH scaling param. (alpha)    .... 1000.000
   Quad. conv. algorithm                .... NR
   White noise on init. David. guess    .... on
   Maximum white noise                  ....   0.010
   Pseudo random numbers                .... off
   Inactive MOs                         .... canonical
   Orbital update algorithm             .... Taylor
   Preconditioner                       .... Diag
   Full preconditioner red. dimension   ....   250
 SOSCF                  CNVSOSCF        .... on
   Start iteration      SOSCFMaxIt      ....   150
   Startup grad/error   SOSCFStart      ....  0.003300
   Hessian update       SOSCFHessUp     .... L-BFGS
 Level Shifting         CNVShift        .... on
   Level shift para.    LevelShift      ....    0.2500
   Turn off err/grad.   ShiftErr        ....    0.0010
 Zerner damping         CNVZerner       .... off
 Static damping         CNVDamp         .... on
   Fraction old density DampFac         ....    0.7000
   Max. Damping (<1)    DampMax         ....    0.9800
   Min. Damping (>=0)   DampMin         ....    0.0000
   Turn off err/grad.   DampErr         ....    0.1000

SCF Procedure:
 Maximum # iterations   MaxIter         ....   125
 SCF integral mode      SCFMode         .... Direct
   Integral package                     .... SHARK and LIBINT hybrid scheme
 Reset frequency        DirectResetFreq ....    20
 Integral Threshold     Thresh          ....  1.000e-10 Eh
 Primitive CutOff       TCut            ....  1.000e-11 Eh

Convergence Tolerance:
 Convergence Check Mode ConvCheckMode   .... Total+1el-Energy
 Convergence forced     ConvForced      .... 1
 Energy Change          TolE            ....  1.000e-06 Eh
 1-El. energy change                    ....  1.000e-03 Eh
 Orbital Gradient       TolG            ....  5.000e-05
 Orbital Rotation angle TolX            ....  5.000e-05
 DIIS Error             TolErr          ....  1.000e-06

---------------------
INITIAL GUESS: MOREAD
---------------------
Guess MOs are being read from file: /home/ubuntu/Shiwei/qm9_reaction_eng/qm9_orca_work/qm9_orca_work_elem/o/o_mp2_631gss.ges
Input Geometry matches current geometry (good)
Input basis set matches current basis set (good)
MOs were renormalized
MOs were reorthogonalized (Cholesky)
                      ------------------
                      INITIAL GUESS DONE (   0.0 sec)
                      ------------------
             **** ENERGY FILE WAS UPDATED (/home/ubuntu/Shiwei/qm9_reaction_eng/qm9_orca_work/qm9_orca_work_elem/o/o_mp2_631gss.en.tmp) ****
Finished Guess after   0.0 sec
Maximum memory used throughout the entire GUESS-calculation: 4.0 MB

-------------------------------------------------------------------------------------------
                                      ORCA LEAN-SCF
                              memory conserving SCF solver
-------------------------------------------------------------------------------------------

----------------------------------------D-I-I-S--------------------------------------------
Iteration    Energy (Eh)           Delta-E    RMSDP     MaxDP     DIISErr   Damp  Time(sec)
-------------------------------------------------------------------------------------------
               ***  Starting incremental Fock matrix formation  ***
                              *** Initializing SOSCF ***
---------------------------------------S-O-S-C-F--------------------------------------
Iteration    Energy (Eh)           Delta-E    RMSDP     MaxDP     MaxGrad    Time(sec)
--------------------------------------------------------------------------------------
    1    -74.7831809118939788     0.00e+00  1.21e-06  7.28e-06  1.67e-06     0.0
               *** Restarting incremental Fock matrix formation ***
    2    -74.7831809123815106    -4.88e-10  2.21e-07  1.19e-06  6.48e-06     0.0
                  *** Gradient check signals convergence ***

               *****************************************************
               *                     SUCCESS                       *
               *           SCF CONVERGED AFTER   2 CYCLES          *
               *****************************************************

             **** ENERGY FILE WAS UPDATED (/home/ubuntu/Shiwei/qm9_reaction_eng/qm9_orca_work/qm9_orca_work_elem/o/o_mp2_631gss.en.tmp) ****

----------------
TOTAL SCF ENERGY
----------------

Total Energy       :        -74.78318091238151 Eh           -2034.95381 eV

Components:
Nuclear Repulsion  :          0.00000000000000 Eh               0.00000 eV
Electronic Energy  :        -74.78318091238151 Eh           -2034.95381 eV
One Electron Energy:       -103.21959280585243 Eh           -2808.74791 eV
Two Electron Energy:         28.43641189347092 Eh             773.79411 eV

Virial components:
Potential Energy   :       -149.48117557383966 Eh           -4067.58958 eV
Kinetic Energy     :         74.69799466145814 Eh            2032.63577 eV
Virial Ratio       :          2.00114040880628

---------------
SCF CONVERGENCE
---------------

  Last Energy change         ...    4.8753e-10  Tolerance :   1.0000e-06
  Last MAX-Density change    ...    1.1884e-06  Tolerance :   1.0000e-05
  Last RMS-Density change    ...    2.2106e-07  Tolerance :   1.0000e-06
  Last DIIS Error            ...    1.9888e-05  Tolerance :   1.0000e-06
  Last Orbital Gradient      ...    6.4778e-06  Tolerance :   5.0000e-05
  Last Orbital Rotation      ...    1.8901e-06  Tolerance :   5.0000e-05


----------------------
UHF SPIN CONTAMINATION
----------------------

Expectation value of <S**2>     :     2.005533
Ideal value S*(S+1) for S=1.0   :     2.000000
Deviation                       :     0.005533

----------------
ORBITAL ENERGIES
----------------
                 SPIN UP ORBITALS
  NO   OCC          E(Eh)            E(eV) 
   0   1.0000     -20.711920      -563.6000 
   1   1.0000      -1.408489       -38.3269 
   2   1.0000      -0.700854       -19.0712 
   3   1.0000      -0.700854       -19.0712 
   4   1.0000      -0.604582       -16.4515 
   5   0.0000       1.035725        28.1835 
   6   0.0000       1.035725        28.1835 
   7   0.0000       1.095442        29.8085 
   8   0.0000       1.156916        31.4813 
   9   0.0000       1.942494        52.8579 
  10   0.0000       1.942494        52.8579 
  11   0.0000       1.998817        54.3906 
  12   0.0000       1.998817        54.3906 
  13   0.0000       2.018771        54.9336 

                 SPIN DOWN ORBITALS
  NO   OCC          E(Eh)            E(eV) 
   0   1.0000     -20.632756      -561.4458 
   1   1.0000      -1.071362       -29.1532 
   2   1.0000      -0.515953       -14.0398 
   3   0.0000       0.127820         3.4781 
   4   0.0000       0.127820         3.4781 
   5   0.0000       1.140743        31.0412 
   6   0.0000       1.255489        34.1636 
   7   0.0000       1.257005        34.2048 
   8   0.0000       1.257005        34.2048 
   9   0.0000       2.096325        57.0439 
  10   0.0000       2.104874        57.2765 
  11   0.0000       2.104874        57.2765 
  12   0.0000       2.136786        58.1449 
  13   0.0000       2.136786        58.1449 
*Only the first 10 virtual orbitals were printed.

                    ********************************
                    * MULLIKEN POPULATION ANALYSIS *
                    ********************************

--------------------------------------------
MULLIKEN ATOMIC CHARGES AND SPIN POPULATIONS
--------------------------------------------
   0 O :   -0.000000    2.000000
Sum of atomic charges         :   -0.0000000
Sum of atomic spin populations:    2.0000000

-----------------------------------------------------
MULLIKEN REDUCED ORBITAL CHARGES AND SPIN POPULATIONS
-----------------------------------------------------
CHARGE
  0 O s       :     3.998868  s :     3.998868
      pz      :     1.919195  p :     4.000000
      px      :     1.026545
      py      :     1.054260
      dz2     :     0.000874  d :     0.001132
      dxz     :     0.000083
      dyz     :     0.000169
      dx2y2   :     0.000001
      dxy     :     0.000005


SPIN
  0 O s       :     0.000314  s :     0.000314
      pz      :     0.080805  p :     2.000000
      px      :     0.973455
      py      :     0.945740
      dz2     :    -0.000242  d :    -0.000314
      dxz     :    -0.000023
      dyz     :    -0.000047
      dx2y2   :    -0.000000
      dxy     :    -0.000001



                     *******************************
                     * LOEWDIN POPULATION ANALYSIS *
                     *******************************

-------------------------------------------
LOEWDIN ATOMIC CHARGES AND SPIN POPULATIONS
-------------------------------------------
   0 O :   -0.000000    2.000000

----------------------------------------------------
LOEWDIN REDUCED ORBITAL CHARGES AND SPIN POPULATIONS
----------------------------------------------------
CHARGE
  0 O s       :     3.998868  s :     3.998868
      pz      :     1.919195  p :     4.000000
      px      :     1.026545
      py      :     1.054260
      dz2     :     0.000874  d :     0.001132
      dxz     :     0.000083
      dyz     :     0.000169
      dx2y2   :     0.000001
      dxy     :     0.000005


SPIN
  0 O s       :     0.000314  s :     0.000314
      pz      :     0.080805  p :     2.000000
      px      :     0.973455
      py      :     0.945740
      dz2     :    -0.000242  d :    -0.000314
      dxz     :    -0.000023
      dyz     :    -0.000047
      dx2y2   :    -0.000000
      dxy     :    -0.000001



                      *****************************
                      * MAYER POPULATION ANALYSIS *
                      *****************************

  NA   - Mulliken gross atomic population
  ZA   - Total nuclear charge
  QA   - Mulliken gross atomic charge
  VA   - Mayer's total valence
  BVA  - Mayer's bonded valence
  FA   - Mayer's free valence

  ATOM       NA         ZA         QA         VA         BVA        FA
  0 O      8.0000     8.0000    -0.0000     2.0111     0.0000     2.0111

  Mayer bond orders larger than 0.100000
  => no bond orders to print

-------
TIMINGS
-------

Total SCF time: 0 days 0 hours 0 min 0 sec 

Total time                  ....       0.020 sec
Sum of individual times     ....       0.018 sec  ( 91.9%)

SCF preparation             ....       0.014 sec  ( 71.0%)
Fock matrix formation       ....       0.002 sec  ( 10.6%)
  Startup                   ....       0.000 sec  (  6.6% of F)
  Coulomb+Exchange Fock     ....       0.002 sec  ( 76.9% of F)
Diagonalization             ....       0.000 sec  (  0.0%)
Density matrix formation    ....       0.000 sec  (  1.0%)
Total Energy calculation    ....       0.000 sec  (  0.2%)
Population analysis         ....       0.001 sec  (  2.5%)
Orbital Transformation      ....       0.001 sec  (  3.3%)
Orbital Orthonormalization  ....       0.000 sec  (  0.0%)
DIIS solution               ....       0.000 sec  (  1.0%)
SOSCF solution              ....       0.000 sec  (  2.1%)
Finished LeanSCF after   0.0 sec

Maximum memory used throughout the entire LEANSCF-calculation: 7.5 MB

------------------------------------------------------------------------------
                         ORCA PROPERTY INTEGRAL CALCULATIONS
------------------------------------------------------------------------------

GBWName                                   ... /home/ubuntu/Shiwei/qm9_reaction_eng/qm9_orca_work/qm9_orca_work_elem/o/o_mp2_631gss.gbw
Number of atoms                           ...      1
Number of basis functions                 ...     14
Max core memory                           ...   8000 MB

Dipole integrals                          ... YES
Quadrupole integrals                      ...  NO
Linear momentum integrals                 ... YES
Angular momentum integrals                ... YES
Higher moments length integrals           ...  NO
Higher moments velocity integrals         ...  NO
Kinetic energy integrals                  ...  NO
GIAO right hand sides                     ...  NO
GIAO dipole derivative integrals          ...  NO
SOC integrals                             ...  NO
EPR diamagnetic integrals (GIAO)          ...  NO
EPR gauge integrals                       ...  NO
Field gradient integrals                  ...  NO (   0 nuclei)
Spin-dipole/Fermi contact integrals       ...  NO (   0 nuclei)
Contact density integrals                 ...  NO (   0 nuclei)
Nucleus-orbit integrals                   ...  NO (   0 nuclei)
Geometric perturbations                   ...  NO (   1 nuclei)

Choice of electric origin   ... Center of mass
Position of electric origin ... (  0.0000,  0.0000,  0.0000) 
Choice of magnetic origin   ... GIAO
Position of magnetic origin ... (  0.0000,  0.0000,  0.0000) 

Calculating integrals                     ... Electric Dipole (Length)     done (  0.0 sec)
Calculating integrals                     ... Linear Momentum              done (  0.0 sec)
Calculating integrals                     ... Angular Momentum  (ElOri)    done (  0.0 sec)

Property integrals calculated in   0.0 sec

Maximum memory used throughout the entire PROPINT-calculation: 4.1 MB
------------------------------------------------------------------------------
                           ORCA ORBITAL LOCALIZATION
------------------------------------------------------------------------------

Input orbitals are from                  ... /home/ubuntu/Shiwei/qm9_reaction_eng/qm9_orca_work/qm9_orca_work_elem/o/o_mp2_631gss.gbw
Output orbitals are to                   ... /home/ubuntu/Shiwei/qm9_reaction_eng/qm9_orca_work/qm9_orca_work_elem/o/o_mp2_631gss.loc
Max. number of iterations                ... 128
Localizations seeded randomly            ... on
Convergence tolerance                    ... 1.000e-06
Threshold for strong local MOs           ... 9.500e-01
Threshold for bond MOs                   ... 8.500e-01
Operator                                 ... 0
Orbital range for localization           ... 1 to 4
Localization criterion                   ... FOSTER-BOYS (AUGMENTED HESSIAN)
Doing the dipole integrals     ... o.k.
Initial value of the localization sum :     0.000000
ITERATION   0 : L=    1.1511003412 DL=  1.15e+00 (AVERGE_DL)=    0.4380069142 
ITERATION   1 : L=    1.2993734514 DL=  1.48e-01 (AVERGE_DL)=    0.1572010974 
ITERATION   2 : L=    1.3083889584 DL=  9.02e-03 (AVERGE_DL)=    0.0387631847 
ITERATION   3 : L=    1.3089554668 DL=  5.67e-04 (AVERGE_DL)=    0.0097168961 
ITERATION   4 : L=    1.3089901451 DL=  3.47e-05 (AVERGE_DL)=    0.0024041048 
ITERATION   5 : L=    1.3089925678 DL=  2.42e-06 (AVERGE_DL)=    0.0006354416 
ITERATION   6 : L=    1.3089927316 DL=  1.64e-07 (AVERGE_DL)=    0.0001651912 
LOCALIZATION SUM CONVERGED

------------------------------------------------------
AUGMENTED HESSIAN OPTIMIZATION OF FOSTER-BOYS ORBITALS
------------------------------------------------------

Spin operator:           0
Orbital window:          1 to 4
Number of iterations:    128
Gradient tolerance:      1.000e-06
Number of pairs:         6
Davidson threshold:      2000
Diagonalization method:  LAPACK
Iter:    0   L: 1.3089927316   Grad. norm: 4.407336e-04
   *** Detected a saddle point. ***
       Augmented Hessian eigenvalues:  7.22e-04  5.65e-05 -3.16e-05 -1.01e-03 ... 
Iter:    1   L: 1.3090418395   Grad. norm: 9.780322e-03
Iter:    2   L: 1.3090730725   Grad. norm: 1.465368e-03
Iter:    3   L: 1.3090750748   Grad. norm: 2.322700e-04
   *** Likely close to a maximum now. ***
       Augmented Hessian eigenvalues:  4.56e-08  8.39e-09 -1.01e-03 -1.03e-03 ... 
Iter:    4   L: 1.3090750978   Grad. norm: 2.430652e-06
Iter:    5   L: 1.3090750978   Grad. norm: 6.451584e-10
LOCALIZATION HAS CONVERGED.

Eigenvalues of the Hessian:
  0 -1.273e-15
  1 -1.007e-03
  2 -1.007e-03
  3 -3.304e+00
  4 -3.585e+00
  5 -3.585e+00


--------------------------------------------------------------------------------
                    LOCALIZED MOLECULAR ORBITAL COMPOSITIONS
--------------------------------------------------------------------------------

The Mulliken populations for each LMO on each atom are computed
The LMO`s will be ordered according to atom index and type
  (A) Strongly localized MO`s have populations of >=0.950 on one atom
  (B) Two center bond orbitals have populations of >=0.850 on two atoms
  (C) Other MO`s are considered to be `delocalized`

FOUND  -   4 strongly local MO`s
       -   0 two center bond MO`s
       -   0 significantly delocalized MO`s

Rather strongly localized orbitals:
MO   4:   0O  -   1.000000
MO   3:   0O  -   1.000000
MO   2:   0O  -   1.000000
MO   1:   0O  -   1.000000
Localized MO's were stored in: /home/ubuntu/Shiwei/qm9_reaction_eng/qm9_orca_work/qm9_orca_work_elem/o/o_mp2_631gss.loc
------------------------------------------------------------------------------
                           ORCA ORBITAL LOCALIZATION
------------------------------------------------------------------------------

Input orbitals are from                  ... /home/ubuntu/Shiwei/qm9_reaction_eng/qm9_orca_work/qm9_orca_work_elem/o/o_mp2_631gss.loc
Output orbitals are to                   ... /home/ubuntu/Shiwei/qm9_reaction_eng/qm9_orca_work/qm9_orca_work_elem/o/o_mp2_631gss.loc
Max. number of iterations                ... 128
Localizations seeded randomly            ... on
Convergence tolerance                    ... 1.000e-06
Threshold for strong local MOs           ... 9.500e-01
Threshold for bond MOs                   ... 8.500e-01
Operator                                 ... 1
Orbital range for localization           ... 1 to 2
Localization criterion                   ... FOSTER-BOYS (AUGMENTED HESSIAN)
Doing the dipole integrals     ... o.k.
Initial value of the localization sum :     0.000000
ITERATION   0 : L=    1.0051922445 DL=  1.01e+00 (AVERGE_DL)=    1.0025927610 
ITERATION   1 : L=    1.0051922445 DL=  0.00e+00 (AVERGE_DL)=    0.0000000000 
LOCALIZATION SUM CONVERGED

------------------------------------------------------
AUGMENTED HESSIAN OPTIMIZATION OF FOSTER-BOYS ORBITALS
------------------------------------------------------

Spin operator:           1
Orbital window:          1 to 2
Number of iterations:    128
Gradient tolerance:      1.000e-06
Number of pairs:         1
Davidson threshold:      2000
Diagonalization method:  LAPACK
Iter:    0   L: 1.0051922445   Grad. norm: 8.677242e-16
   *** Likely close to a maximum now. ***
       Augmented Hessian eigenvalues:  9.36e-32 -8.04e+00
Iter:    1   L: 1.0051922445   Grad. norm: 0.000000e+00
LOCALIZATION HAS CONVERGED.

Eigenvalues of the Hessian:
  0 -8.042e+00


--------------------------------------------------------------------------------
                    LOCALIZED MOLECULAR ORBITAL COMPOSITIONS
--------------------------------------------------------------------------------

The Mulliken populations for each LMO on each atom are computed
The LMO`s will be ordered according to atom index and type
  (A) Strongly localized MO`s have populations of >=0.950 on one atom
  (B) Two center bond orbitals have populations of >=0.850 on two atoms
  (C) Other MO`s are considered to be `delocalized`

FOUND  -   2 strongly local MO`s
       -   0 two center bond MO`s
       -   0 significantly delocalized MO`s

Rather strongly localized orbitals:
MO   2:   0O  -   1.000000
MO   1:   0O  -   1.000000
Localized MO's were stored in: /home/ubuntu/Shiwei/qm9_reaction_eng/qm9_orca_work/qm9_orca_work_elem/o/o_mp2_631gss.loc

------------------------------------------------------------------------------
                                ORCA  MP2 
------------------------------------------------------------------------------

Freezing NCore=2 chemical core electrons

-------------
RI-MP2 ENERGY
-------------
Dimension of the orbital basis            ...   14
Dimension of the AuxC basis               ...   48
Memory devoted to MP2                     ... 8000 MB   
Data format for matrix containers         ... DOUBLE
Compression type for matrix containers    ... UNCOMPRESSED

-----------------------
SHARK RI TRANSFORMATION
-----------------------

Number of basis functions                ...     14
Number of aux functions                  ...     48
Number of operators                      ...      2
Generation of IJK                        ... NO
Generation of IAK                        ... YES
Generation of ABK                        ... NO
Orbital Range Operator  0:    1-   4 to    5-  13

Orbital Range Operator  1:    1-   2 to    3-  13

Aux basis identifier                     ...   AUXC
Contraction scheme used                  ... SEGMENTED
Do orthogonalization                     ... YES
All operator combinations                ... NO
Transpose (ia|K)                         ... NO
Integral generator used                  ... LIBINT
Starting integral generation + trafo... 
Half trafo (segmented) done. Total time =  0.0 sec. integrals=  0.0 sec trafo=  0.0 sec
Integral generation and half transformation done (  0.0 sec)

Reading or making V^(-1/2)          ... done (  0.0 sec)
Sorting IAK integrals               ... done (  0.0 sec)
Sorting IAK integrals               ... done (  0.0 sec)

SHARK RI integral transformation done. Total time =  0.0 sec.

Opening buffers                              ... done

Starting loop over batches of integrals:

Operator 0  - window                       ... (  1-  4)x(  5- 13)
Operator 0  - Memory available             ...  8000 MB
Operator 0  - Memory needed per MO         ...   0.0 MB
Operator 0  - Number of orbitals per batch ... 4
Operator 0  - Number of batches            ... 1

OPERATOR  0   PASS   0:  MOs     1 ...    4
  Reading integrals       ... ok
  Internal MO   3

Operator 1  - window                       ... (  1-  2)x(  3- 13)
Operator 1  - Memory available             ...  8000 MB
Operator 1  - Memory needed per MO         ...   0.0 MB
Operator 1  - Number of orbitals per batch ... 2
Operator 1  - Number of batches            ... 1

OPERATOR  1   PASS   0:  MOs     1 ...    2
  Reading integrals       ... ok
Time spent in pair loops =     0.000 sec
Deleting buffers (Ka|jb) ...done

Correlation energy components}
 E2 for alpha/alpha pairs :     -0.021623496 Eh
 E2 for beta/beta   pairs :     -0.003138474 Eh
 E2 for alpha/beta  pairs :     -0.070421220 Eh


-----------------------------------------------
 RI-MP2 CORRELATION ENERGY:     -0.095183190 Eh
-----------------------------------------------


-------
TIMINGS
-------

Total time                :    0.029 sec
Integral trafo            :    0.028 sec ( 98.5%)


---------------------------------------
MP2 TOTAL ENERGY:      -74.878364102 Eh
---------------------------------------

Maximum memory used throughout the entire MP2-calculation: 10.1 MB


--------------------------------------------------------------------------------
                             ORCA-MATRIX DRIVEN CI
--------------------------------------------------------------------------------

--------------------------------
AUTOMATIC CHOICE OF INCORE LEVEL
--------------------------------

Memory available                           ...   4000.00 MB
Memory needed for S+T                      ...      0.01 MB
Memory needed for J+K                      ...      0.04 MB
Memory needed for DIIS                     ...      0.17 MB
Memory needed for 3-ext                    ...      0.02 MB
Memory needed for 4-ext                    ...      0.03 MB
Memory needed for triples                  ...      0.00 MB
 -> Final InCoreLevel    ... 5

Wavefunction type
-----------------
Correlation treatment                      ...     QCISD     
Single excitations                         ... ON
Orbital optimization                       ... OFF
Calculation of Z vector                    ... OFF
Calculation of Brueckner orbitals          ... OFF
Perturbative triple excitations            ... OFF
Calculation of F12 correction              ... OFF
Frozen core treatment                      ... chemical core (2 el)
Reference Wavefunction                     ... UHF
  Alpha-MOs occ    :     1 ...    4 (  4 MO's/  4 electrons)
  Beta-MOs occ     :     1 ...    2 (  2 MO's/  2 electrons)
  Alpha-MOs virt   :     5 ...   13 (  9 MO's              )
  Beta-MOs virt    :     3 ...   13 ( 11 MO's              )
Number of AO's                             ...     14
Number of electrons                        ...      8
Number of correlated electrons             ...      6

Algorithmic settings
--------------------
Integral transformation                    ... Separate K and J transformations
K(C) Formation                             ... AO-EXCHANGE STORED
Maximum number of iterations               ...        50
Convergence tolerance (max. residuum)      ... 2.500e-05
Level shift for amplitude update           ... 2.000e-01
Maximum number of DIIS vectors             ...         7
DIIS turned on at iteration                ...         0
Damping before turning on DIIS             ...     0.500
Damping after turning on DIIS              ...     0.000
Pair specific amplitude update             ... OFF
Natural orbital iterations                 ... OFF
Perturbative natural orbital generation    ... OFF
Printlevel                                 ... 4

Memory handling:
----------------
Maximum memory for working arrays          ...   4000 MB
Data storage in matrix containers          ... UNCOMPRESSED
Data type for integral storage             ... DOUBLE
In-Core Storage of quantities:
   Amplitudes+Sigma Vector      ... YES
   J+K operators                ... YES
   DIIS vectors                 ... YES
   3-external integrals         ... YES
   4-external integrals         ... YES


Initializing the integral package          ... done
Localizing the valence orbitals
Localizing the valence orbitals
------------------------------------------------------------------------------
                           ORCA ORBITAL LOCALIZATION
------------------------------------------------------------------------------

Input orbitals are from                  ... /home/ubuntu/Shiwei/qm9_reaction_eng/qm9_orca_work/qm9_orca_work_elem/o/o_mp2_631gss.gbw
Output orbitals are to                   ... /home/ubuntu/Shiwei/qm9_reaction_eng/qm9_orca_work/qm9_orca_work_elem/o/o_mp2_631gss.loc
Max. number of iterations                ... 128
Localizations seeded randomly            ... off
Convergence tolerance                    ... 1.000e-06
Threshold for strong local MOs           ... 9.500e-01
Threshold for bond MOs                   ... 8.500e-01
Operator                                 ... 0
Orbital range for localization           ... 1 to 4
Localization criterion                   ... FOSTER-BOYS (AUGMENTED HESSIAN)
Doing the dipole integrals     ... o.k.
Initial value of the localization sum :     0.000000
ITERATION   0 : L=    1.1511003412 DL=  1.15e+00 (AVERGE_DL)=    0.4380069142 
ITERATION   1 : L=    1.2993734514 DL=  1.48e-01 (AVERGE_DL)=    0.1572010974 
ITERATION   2 : L=    1.3083889584 DL=  9.02e-03 (AVERGE_DL)=    0.0387631847 
ITERATION   3 : L=    1.3089554668 DL=  5.67e-04 (AVERGE_DL)=    0.0097168961 
ITERATION   4 : L=    1.3089901451 DL=  3.47e-05 (AVERGE_DL)=    0.0024041048 
ITERATION   5 : L=    1.3089925678 DL=  2.42e-06 (AVERGE_DL)=    0.0006354416 
ITERATION   6 : L=    1.3089927316 DL=  1.64e-07 (AVERGE_DL)=    0.0001651912 
LOCALIZATION SUM CONVERGED

------------------------------------------------------
AUGMENTED HESSIAN OPTIMIZATION OF FOSTER-BOYS ORBITALS
------------------------------------------------------

Spin operator:           0
Orbital window:          1 to 4
Number of iterations:    128
Gradient tolerance:      1.000e-06
Number of pairs:         6
Davidson threshold:      2000
Diagonalization method:  LAPACK
Iter:    0   L: 1.3089927316   Grad. norm: 4.407336e-04
   *** Detected a saddle point. ***
       Augmented Hessian eigenvalues:  7.22e-04  5.65e-05 -3.16e-05 -1.01e-03 ... 
Iter:    1   L: 1.3090418395   Grad. norm: 9.780322e-03
Iter:    2   L: 1.3090730725   Grad. norm: 1.465368e-03
Iter:    3   L: 1.3090750748   Grad. norm: 2.322700e-04
   *** Likely close to a maximum now. ***
       Augmented Hessian eigenvalues:  4.56e-08  8.39e-09 -1.01e-03 -1.03e-03 ... 
Iter:    4   L: 1.3090750978   Grad. norm: 2.430652e-06
Iter:    5   L: 1.3090750978   Grad. norm: 6.451584e-10
LOCALIZATION HAS CONVERGED.

Eigenvalues of the Hessian:
  0 -1.273e-15
  1 -1.007e-03
  2 -1.007e-03
  3 -3.304e+00
  4 -3.585e+00
  5 -3.585e+00


--------------------------------------------------------------------------------
                    LOCALIZED MOLECULAR ORBITAL COMPOSITIONS
--------------------------------------------------------------------------------

The Mulliken populations for each LMO on each atom are computed
The LMO`s will be ordered according to atom index and type
  (A) Strongly localized MO`s have populations of >=0.950 on one atom
  (B) Two center bond orbitals have populations of >=0.850 on two atoms
  (C) Other MO`s are considered to be `delocalized`

FOUND  -   4 strongly local MO`s
       -   0 two center bond MO`s
       -   0 significantly delocalized MO`s

Rather strongly localized orbitals:
MO   4:   0O  -   1.000000
MO   3:   0O  -   1.000000
MO   2:   0O  -   1.000000
MO   1:   0O  -   1.000000
Localized MO's were stored in: /home/ubuntu/Shiwei/qm9_reaction_eng/qm9_orca_work/qm9_orca_work_elem/o/o_mp2_631gss.loc

------------------------------------------------------------------------------
                           ORCA ORBITAL LOCALIZATION
------------------------------------------------------------------------------

Input orbitals are from                  ... /home/ubuntu/Shiwei/qm9_reaction_eng/qm9_orca_work/qm9_orca_work_elem/o/o_mp2_631gss.loc
Output orbitals are to                   ... /home/ubuntu/Shiwei/qm9_reaction_eng/qm9_orca_work/qm9_orca_work_elem/o/o_mp2_631gss.loc
Max. number of iterations                ... 128
Localizations seeded randomly            ... off
Convergence tolerance                    ... 1.000e-06
Threshold for strong local MOs           ... 9.500e-01
Threshold for bond MOs                   ... 8.500e-01
Operator                                 ... 1
Orbital range for localization           ... 1 to 2
Localization criterion                   ... FOSTER-BOYS (AUGMENTED HESSIAN)
Doing the dipole integrals     ... o.k.
Initial value of the localization sum :     0.000000
ITERATION   0 : L=    1.0051922445 DL=  1.01e+00 (AVERGE_DL)=    1.0025927610 
ITERATION   1 : L=    1.0051922445 DL=  0.00e+00 (AVERGE_DL)=    0.0000000000 
LOCALIZATION SUM CONVERGED

------------------------------------------------------
AUGMENTED HESSIAN OPTIMIZATION OF FOSTER-BOYS ORBITALS
------------------------------------------------------

Spin operator:           1
Orbital window:          1 to 2
Number of iterations:    128
Gradient tolerance:      1.000e-06
Number of pairs:         1
Davidson threshold:      2000
Diagonalization method:  LAPACK
Iter:    0   L: 1.0051922445   Grad. norm: 8.677242e-16
   *** Likely close to a maximum now. ***
       Augmented Hessian eigenvalues:  9.36e-32 -8.04e+00
Iter:    1   L: 1.0051922445   Grad. norm: 0.000000e+00
LOCALIZATION HAS CONVERGED.

Eigenvalues of the Hessian:
  0 -8.042e+00


--------------------------------------------------------------------------------
                    LOCALIZED MOLECULAR ORBITAL COMPOSITIONS
--------------------------------------------------------------------------------

The Mulliken populations for each LMO on each atom are computed
The LMO`s will be ordered according to atom index and type
  (A) Strongly localized MO`s have populations of >=0.950 on one atom
  (B) Two center bond orbitals have populations of >=0.850 on two atoms
  (C) Other MO`s are considered to be `delocalized`

FOUND  -   2 strongly local MO`s
       -   0 two center bond MO`s
       -   0 significantly delocalized MO`s

Rather strongly localized orbitals:
MO   2:   0O  -   1.000000
MO   1:   0O  -   1.000000
Localized MO's were stored in: /home/ubuntu/Shiwei/qm9_reaction_eng/qm9_orca_work/qm9_orca_work_elem/o/o_mp2_631gss.loc

Localizing the core orbitals
------------------------------------------------------------------------------
                           ORCA ORBITAL LOCALIZATION
------------------------------------------------------------------------------

Input orbitals are from                  ... /home/ubuntu/Shiwei/qm9_reaction_eng/qm9_orca_work/qm9_orca_work_elem/o/o_mp2_631gss.loc
Output orbitals are to                   ... /home/ubuntu/Shiwei/qm9_reaction_eng/qm9_orca_work/qm9_orca_work_elem/o/o_mp2_631gss.loc
Max. number of iterations                ... 128
Localizations seeded randomly            ... off
Convergence tolerance                    ... 1.000e-06
Threshold for strong local MOs           ... 9.500e-01
Threshold for bond MOs                   ... 8.500e-01
Operator                                 ... 0
Orbital range for localization           ... 0 to 0
Localization criterion                   ... FOSTER-BOYS (AUGMENTED HESSIAN)
Doing the dipole integrals     ... o.k.

ORCA_LOC: ONLY ONE ORBITAL - SKIPPING LOCALIZATION


--------------------------------------------------------------------------------
                    LOCALIZED MOLECULAR ORBITAL COMPOSITIONS
--------------------------------------------------------------------------------

The Mulliken populations for each LMO on each atom are computed
The LMO`s will be ordered according to atom index and type
  (A) Strongly localized MO`s have populations of >=0.950 on one atom
  (B) Two center bond orbitals have populations of >=0.850 on two atoms
  (C) Other MO`s are considered to be `delocalized`

FOUND  -   1 strongly local MO`s
       -   0 two center bond MO`s
       -   0 significantly delocalized MO`s

Rather strongly localized orbitals:
MO   0:   0O  -   1.000000
Localized MO's were stored in: /home/ubuntu/Shiwei/qm9_reaction_eng/qm9_orca_work/qm9_orca_work_elem/o/o_mp2_631gss.loc

Warning: reference  - re-canonicalizations have been set to INT 1 VIRT 1
Warning: internal orbitals are localized - no re-canonicalization of internal orbitals
Fock densities were made 
Making Fock matrix and reference energy:

--------------------------
UNRESTRICTED FOCK OPERATOR
--------------------------

Recanonicalizing the virtual orbitals
Storing new orbitals
Time needed for Fock operator              ...            0.002 sec
Reference energy                           ...    -74.783180912

-------------------------
SHARK HALF TRANSFORMATION
-------------------------

Number of basis functions                ...     14
Number of operators                      ...      2
   Operator  0:    1-   4

   Operator  1:    1-   2

Integral generator used                  ... SHARK
Contraction scheme used                  ... SEGMENTED CONTRACTION
MaxCore in resort                        ...   8000 MB

Half transformed integrals for op=   0   ... /home/ubuntu/Shiwei/qm9_reaction_eng/qm9_orca_work/qm9_orca_work_elem/o/o_mp2_631gss.SHARK_MNPQ0.tmp
Resorted half transformed integrals      ... /home/ubuntu/Shiwei/qm9_reaction_eng/qm9_orca_work/qm9_orca_work_elem/o/o_mp2_631gss._PQMN_0.tmp
Half transformed integrals for op=   1   ... /home/ubuntu/Shiwei/qm9_reaction_eng/qm9_orca_work/qm9_orca_work_elem/o/o_mp2_631gss.SHARK_MNPQ1.tmp
Resorted half transformed integrals      ... /home/ubuntu/Shiwei/qm9_reaction_eng/qm9_orca_work/qm9_orca_work_elem/o/o_mp2_631gss._PQMN_1.tmp
Starting integral generation + half trafo... 
Half trafo (segmented) done. Total time =  0.0 sec. integrals=  0.0 sec trafo=  0.0 sec
Starting integral resorting              ... done (  0.0 sec)

SHARK half integral transformation done. Total time =  0.0 sec.

----------------------------------
J-TRAFO SECOND HALF TRANSFORMATION
----------------------------------

Generate (ij|kl)                        ... NO
Generate (ij|ka)                        ... YES
Generate (ij|ab)                        ... YES
Generate (ia|bc)                        ... NO
Generate (ab|cd)                        ... NO
Generate (pq|rs)                        ... NO

Number of operators                     ... 2
   Operator 0                           ...    1-   4 to    5-  13
   PQMN-Container name                  ... /home/ubuntu/Shiwei/qm9_reaction_eng/qm9_orca_work/qm9_orca_work_elem/o/o_mp2_631gss._PQMN_0.tmp
   IJKA-Container name    op=0,0        ... /home/ubuntu/Shiwei/qm9_reaction_eng/qm9_orca_work/qm9_orca_work_elem/o/o_mp2_631gss._IJKA_0.tmp
   IJAB-Container name    op=0,0        ... /home/ubuntu/Shiwei/qm9_reaction_eng/qm9_orca_work/qm9_orca_work_elem/o/o_mp2_631gss._IJAB_0.tmp
   IJKA-Container name    op=0,1        ... /home/ubuntu/Shiwei/qm9_reaction_eng/qm9_orca_work/qm9_orca_work_elem/o/o_mp2_631gss._IJKA_2.tmp
   IJAB-Container name    op=0,1        ... /home/ubuntu/Shiwei/qm9_reaction_eng/qm9_orca_work/qm9_orca_work_elem/o/o_mp2_631gss._IJAB_2.tmp
   Operator 1                           ...    1-   2 to    3-  13
   PQMN-Container name                  ... /home/ubuntu/Shiwei/qm9_reaction_eng/qm9_orca_work/qm9_orca_work_elem/o/o_mp2_631gss._PQMN_1.tmp
   IJKA-Container name    op=1,0        ... /home/ubuntu/Shiwei/qm9_reaction_eng/qm9_orca_work/qm9_orca_work_elem/o/o_mp2_631gss._IJKA_3.tmp
   IJAB-Container name    op=1,0        ... /home/ubuntu/Shiwei/qm9_reaction_eng/qm9_orca_work/qm9_orca_work_elem/o/o_mp2_631gss._IJAB_3.tmp
   IJKA-Container name    op=1,1        ... /home/ubuntu/Shiwei/qm9_reaction_eng/qm9_orca_work/qm9_orca_work_elem/o/o_mp2_631gss._IJKA_1.tmp
   IJAB-Container name    op=1,1        ... /home/ubuntu/Shiwei/qm9_reaction_eng/qm9_orca_work/qm9_orca_work_elem/o/o_mp2_631gss._IJAB_1.tmp

Starting integral transformations       ... done
Completed Coulomb integral formation in   0.0 sec


-------------------------
SHARK HALF TRANSFORMATION (Exchange order)
-------------------------

Number of basis functions                   ...     14
Number of operators                         ...      2
   Operator  0:    1-   4 (p-index in (p*|q*))
   Operator  0:    1-   4 (q-index in (p*|q*)
   Operator  1:    1-   2 (p-index in (p*|q*))
   Operator  1:    1-   2 (q-index in (p*|q*)
Integral generator used                     ... SHARK
Contraction scheme used                     ... SEGMENTED CONTRACTION
MaxCore in resort                           ...   8000 MB

Half transformed integrals for op=   0      ... /home/ubuntu/Shiwei/qm9_reaction_eng/qm9_orca_work/qm9_orca_work_elem/o/o_mp2_631gss.SHARK_MNPQ0.tmp
Resorted half transformed integrals         ... /home/ubuntu/Shiwei/qm9_reaction_eng/qm9_orca_work/qm9_orca_work_elem/o/o_mp2_631gss._PMQN_0.tmp
Half transformed integrals for op=   1      ... /home/ubuntu/Shiwei/qm9_reaction_eng/qm9_orca_work/qm9_orca_work_elem/o/o_mp2_631gss.SHARK_MNPQ1.tmp
Resorted half transformed integrals         ... /home/ubuntu/Shiwei/qm9_reaction_eng/qm9_orca_work/qm9_orca_work_elem/o/o_mp2_631gss._PMQN_1.tmp
Half transformed integrals for op=0/1       ... /home/ubuntu/Shiwei/qm9_reaction_eng/qm9_orca_work/qm9_orca_work_elem/o/o_mp2_631gss.SHARK_MNPQ01.tmp
Resorted half transformed integrals         ... /home/ubuntu/Shiwei/qm9_reaction_eng/qm9_orca_work/qm9_orca_work_elem/o/o_mp2_631gss._PMQN_2.tmp
Half transformed integrals for op=1/0       ... /home/ubuntu/Shiwei/qm9_reaction_eng/qm9_orca_work/qm9_orca_work_elem/o/o_mp2_631gss.SHARK_MNPQ10.tmp
Resorted half transformed integrals         ... /home/ubuntu/Shiwei/qm9_reaction_eng/qm9_orca_work/qm9_orca_work_elem/o/o_mp2_631gss._PMQN_3.tmp

Half trafo (segmented) done. Total time =  0.0 sec. integrals=  0.0 sec trafo=  0.0 sec

----------------------
SHARK INTEGRAL SORTING (Exchange)
----------------------

Input container                             ... /home/ubuntu/Shiwei/qm9_reaction_eng/qm9_orca_work/qm9_orca_work_elem/o/o_mp2_631gss.SHARK_MNPQ0.tmp
Output container                            ... /home/ubuntu/Shiwei/qm9_reaction_eng/qm9_orca_work/qm9_orca_work_elem/o/o_mp2_631gss._PMQN_0.tmp
Range of AO-indices                         ...    0 -   13
Range of bra indices i                      ...    1 -    4
Range of ket indices j                      ...    1 -    4
Symmetric i,j range                         ... YES
Number of (i,j) pairs generated             ...   10
Max Core memory in MB                       ...   8000

Available core memory in MB                 ...   7981.68
MB needed for one item                      ...      0.00
Number of items                             ...        10
Number of batches                           ...         1
Items treated per batch                     ...        10
Batch   0                                   ...      0-     9 (    10)
   => Closing output file and leaving

----------------------
SHARK INTEGRAL SORTING (Exchange)
----------------------

Input container                             ... /home/ubuntu/Shiwei/qm9_reaction_eng/qm9_orca_work/qm9_orca_work_elem/o/o_mp2_631gss.SHARK_MNPQ1.tmp
Output container                            ... /home/ubuntu/Shiwei/qm9_reaction_eng/qm9_orca_work/qm9_orca_work_elem/o/o_mp2_631gss._PMQN_1.tmp
Range of AO-indices                         ...    0 -   13
Range of bra indices i                      ...    1 -    2
Range of ket indices j                      ...    1 -    2
Symmetric i,j range                         ... YES
Number of (i,j) pairs generated             ...    3
Max Core memory in MB                       ...   8000

Available core memory in MB                 ...   7981.69
MB needed for one item                      ...      0.00
Number of items                             ...         3
Number of batches                           ...         1
Items treated per batch                     ...         3
Batch   0                                   ...      0-     2 (     3)
   => Closing output file and leaving

----------------------
SHARK INTEGRAL SORTING (Exchange)
----------------------

Input container                             ... /home/ubuntu/Shiwei/qm9_reaction_eng/qm9_orca_work/qm9_orca_work_elem/o/o_mp2_631gss.SHARK_MNPQ01.tmp
Output container                            ... /home/ubuntu/Shiwei/qm9_reaction_eng/qm9_orca_work/qm9_orca_work_elem/o/o_mp2_631gss._PMQN_2.tmp
Range of AO-indices                         ...    0 -   13
Range of bra indices i                      ...    1 -    4
Range of ket indices j                      ...    1 -    2
Symmetric i,j range                         ... NO
Number of (i,j) pairs generated             ...    8
Max Core memory in MB                       ...   8000

Available core memory in MB                 ...   7981.69
MB needed for one item                      ...      0.00
Number of items                             ...         8
Number of batches                           ...         1
Items treated per batch                     ...         8
Batch   0                                   ...      0-     7 (     8)
   => Closing output file and leaving

----------------------
SHARK INTEGRAL SORTING (Exchange)
----------------------

Input container                             ... /home/ubuntu/Shiwei/qm9_reaction_eng/qm9_orca_work/qm9_orca_work_elem/o/o_mp2_631gss.SHARK_MNPQ10.tmp
Output container                            ... /home/ubuntu/Shiwei/qm9_reaction_eng/qm9_orca_work/qm9_orca_work_elem/o/o_mp2_631gss._PMQN_3.tmp
Range of AO-indices                         ...    0 -   13
Range of bra indices i                      ...    1 -    2
Range of ket indices j                      ...    1 -    4
Symmetric i,j range                         ... NO
Number of (i,j) pairs generated             ...    8
Max Core memory in MB                       ...   8000

Available core memory in MB                 ...   7981.69
MB needed for one item                      ...      0.00
Number of items                             ...         8
Number of batches                           ...         1
Items treated per batch                     ...         8
Batch   0                                   ...      0-     7 (     8)
   => Closing output file and leaving
done (  0.0 sec)

SHARK half integral transformation done. Total time =  0.0 sec.

----------------------------------
K-TRAFO SECOND HALF TRANSFORMATION
----------------------------------

Generate (ik|jl)                        ... YES
Generate (ik|ja)                        ... YES
Generate (ia|jb)                        ... YES
Generate (ib|ac)                        ... NO
Generate (ac|bd)                        ... NO
Generate (pr|qs)                        ... NO

Number of operators                     ... 2
   Operator 0                           ...    1-   4 to    5-  13
   Operator 1                           ...    1-   2 to    3-  13

Starting integral transformations       ... done
Completed Exchange integral formation in   0.0 sec


-----------------------
SPIN UNRESTRICTED GUESS
-----------------------

Spin-components of the MP2 energy:
EMP2(aa)=     -0.020242983
EMP2(bb)=     -0.003138799
EMP2(ab)=     -0.069875647

Initial guess performed in     0.000 sec
E(0)                                       ...    -74.783180912
E(MP2)                                     ...     -0.093257429
Initial E(tot)                             ...    -74.876438342
<T|T>                                      ...      0.022239100
Number of pairs included                   ... 15

---------------------------
UHF QUADRATIC CI ITERATIONS
---------------------------

Number of amplitudes to be optimized       ...         1121

Iter       E(tot)           E(Corr)          Delta-E          Residual     Time      <S|S>**1/2
  0 Entering Calc_Sigma_UHF
Calling CC/MakeTauAmplitudes
Calling QCI/DressFock
Done with QCI/DressFock (    0.000 sec)
Calling QCI/DressIKJL
Done with QCI/DressIKJL (    0.000 sec)
Calling QCI/DressJK
Done with QCI/DressJK (    0.000 sec)
Calling Calc_0D_1
Done with Calc_0D_1  (    0.000 sec)
Largest sigma element after [0D_1] :      0.109753951
Calling Calc_DD_0a
Done with Calc_DD_0a (    0.000 sec) 
Calling Calc_DD_0b
Done with Calc_DD_0b (    0.000 sec)
Largest sigma element after [DD_0] :      0.056103678
Calling Calc_DD_2a
Done with Calc_DD_2a (    0.000 sec)
Calling Calc_DD_2b
Done with Calc_DD_2b (    0.000 sec)
Largest sigma element after [DD_2] :      0.041549472
Calling Calc_DD_4
COD Check DIM 14 NMOa 13 
COD Check DIM 14 NMOa 13 
Batching information for K(C)-AO:
   Number of pairs=               15
   Mem per (i,j)  =            0.004 MB
   (i,j) per batch=               15
   N(Batches)     =                1
   T(CutInt)      =  1.000000000e-11
COD check DIM 14
COD check DIM 14
COD check DIM 14
COD check DIM 14
COD check DIM 14
COD check DIM 14
COD check DIM 14
COD check DIM 14
COD check DIM 14
COD check DIM 14
COD check DIM 14
COD check DIM 14
COD check DIM 14
COD check DIM 14
COD check DIM 14
K(C)-AOX-2 (UHF Version)  :
  Mem per (p,q)   =            0.001 MB
  (p,q) per batch =              105 
  N(batches)      =                1 
  N(pq-pairs)     =              105 
Mapped the (p,q) pairs
Formed amplitude T+/- combinations
P-batch no 1
  pairs =    0 ...  104
  (p,q) in batch =  105
  integral combination K+/- formed
  matrix multiplications done
  sigma-vector contributions done
All batches done
Done with Calc_DD_4
Done (3)/4 external (    0.000 sec)
Largest sigma element after [DD_4] :      0.022465553
Calling Calc_S0_1
Done with Calc_S0_1 (    0.000 sec)
Largest sigma element after [S0_1] :      0.022465553
Calling Calc_SS_1
Done with Calc_SS_1 (    0.000 sec)
Largest sigma element after [SS_1] :      0.022465553
Calling Calc_DS_1
Done with Calc_DS_1 (    0.000 sec)
Largest sigma element after [DS_1] :      0.022465553
Calling Calc_SD_1
Done with Calc_SD_1 (    0.000 sec)
Largest sigma element after [SD_1] :      0.022465545
Largest sigma element after [SD_3] :      0.022465545
Calling Calc_PairEnergies
E_DD  -0.039391760910
E_SD  -0.050433837633
E_SS  -0.003431830886
E_SingS  -0.000000000001
E_SingD  -0.000000000001
Done with Calc_PairEnergies (    0.000 sec)
Largest sigma element after [PAIR] :      0.022465545
EC=     -0.093257429
Pair energies:
   0 :     -0.003315830
   1 :     -0.003431831
   2 :     -0.003431831
   3 :     -0.003315830
   4 :     -0.003315830
   5 :     -0.003431831
   6 :     -0.003138799
   7 :     -0.006528054
   8 :     -0.009940512
   9 :     -0.006528054
  10 :     -0.009940512
  11 :     -0.015443738
  12 :     -0.005026212
  13 :     -0.006528054
  14 :     -0.009940512
  15 :     -0.000000000
  16 :     -0.000000000
  17 :     -0.000000000
  18 :     -0.000000000
  19 :     -0.000000000
  20 :     -0.000000000
Calling Calc_Shift
Done with Calc_Shift (    0.000 sec)
Largest sigma element after [SHFT] :      0.022465545
Leaving Calc_Sigma
Largest sigma element after [COLL] :      0.022465545
   => Past ModifyStateVector
   => Leaving sigma vector
   -74.876438342     -0.093257429     -0.000000000      0.022465545    0.00      0.000000557
                           *** Turning on DIIS ***
  1 Entering Calc_Sigma_UHF
Calling CC/MakeTauAmplitudes
Calling QCI/DressFock
Done with QCI/DressFock (    0.000 sec)
Calling QCI/DressIKJL
Done with QCI/DressIKJL (    0.000 sec)
Calling QCI/DressJK
Done with QCI/DressJK (    0.000 sec)
Calling Calc_0D_1
Done with Calc_0D_1  (    0.000 sec)
Largest sigma element after [0D_1] :      0.109753951
Calling Calc_DD_0a
Done with Calc_DD_0a (    0.000 sec) 
Calling Calc_DD_0b
Done with Calc_DD_0b (    0.000 sec)
Largest sigma element after [DD_0] :      0.051238055
Calling Calc_DD_2a
Done with Calc_DD_2a (    0.000 sec)
Calling Calc_DD_2b
Done with Calc_DD_2b (    0.000 sec)
Largest sigma element after [DD_2] :      0.029923601
Calling Calc_DD_4
COD Check DIM 14 NMOa 13 
COD Check DIM 14 NMOa 13 
Batching information for K(C)-AO:
   Number of pairs=               15
   Mem per (i,j)  =            0.004 MB
   (i,j) per batch=               15
   N(Batches)     =                1
   T(CutInt)      =  1.000000000e-11
COD check DIM 14
COD check DIM 14
COD check DIM 14
COD check DIM 14
COD check DIM 14
COD check DIM 14
COD check DIM 14
COD check DIM 14
COD check DIM 14
COD check DIM 14
COD check DIM 14
COD check DIM 14
COD check DIM 14
COD check DIM 14
COD check DIM 14
K(C)-AOX-2 (UHF Version)  :
  Mem per (p,q)   =            0.001 MB
  (p,q) per batch =              105 
  N(batches)      =                1 
  N(pq-pairs)     =              105 
Mapped the (p,q) pairs
Formed amplitude T+/- combinations
P-batch no 1
  pairs =    0 ...  104
  (p,q) in batch =  105
  integral combination K+/- formed
  matrix multiplications done
  sigma-vector contributions done
All batches done
Done with Calc_DD_4
Done (3)/4 external (    0.000 sec)
Largest sigma element after [DD_4] :      0.032671980
Calling Calc_S0_1
Done with Calc_S0_1 (    0.000 sec)
Largest sigma element after [S0_1] :      0.032672253
Calling Calc_SS_1
Done with Calc_SS_1 (    0.000 sec)
Largest sigma element after [SS_1] :      0.025041968
Calling Calc_DS_1
Done with Calc_DS_1 (    0.000 sec)
Largest sigma element after [DS_1] :      0.007146927
Calling Calc_SD_1
Done with Calc_SD_1 (    0.000 sec)
Largest sigma element after [SD_1] :      0.008158179
Largest sigma element after [SD_3] :      0.008158179
Calling Calc_PairEnergies
E_DD  -0.044908825563
E_SD  -0.057372674216
E_SS  -0.003720069440
E_SingS   0.000000006292
E_SingD   0.000000006696
Done with Calc_PairEnergies (    0.000 sec)
Largest sigma element after [PAIR] :      0.008158179
EC=     -0.106001556
Pair energies:
   0 :     -0.003611595
   1 :     -0.003720069
   2 :     -0.003720069
   3 :     -0.003611595
   4 :     -0.003611595
   5 :     -0.003720069
   6 :     -0.003247593
   7 :     -0.007543562
   8 :     -0.011481257
   9 :     -0.007543561
  10 :     -0.011481257
  11 :     -0.017777782
  12 :     -0.005906743
  13 :     -0.007543561
  14 :     -0.011481257
  15 :      0.000000002
  16 :      0.000000002
  17 :      0.000000002
  18 :      0.000000002
  19 :      0.000000003
  20 :      0.000000003
Calling Calc_Shift
Done with Calc_Shift (    0.000 sec)
Largest sigma element after [SHFT] :      0.008158179
Leaving Calc_Sigma
Largest sigma element after [COLL] :      0.008158179
   => Past ModifyStateVector
   => Leaving sigma vector
   -74.889182469     -0.106001556     -0.012744127      0.008158179    0.00      0.008566487
The DIIS matrix
                  0          1          2    
      0       0.012723   0.003698   1.000000
      1       0.003698   0.001241   1.000000
      2       1.000000   1.000000   0.000000
                  0          1          2    
      0       0.000000   0.000000   0.000000
      1       0.000000   0.000000   0.000000
      2       1.000000   0.000000   0.000000
The DIIS solution:
   -0.374115    1.374115
  2 Entering Calc_Sigma_UHF
Calling CC/MakeTauAmplitudes
Calling QCI/DressFock
Done with QCI/DressFock (    0.000 sec)
Calling QCI/DressIKJL
Done with QCI/DressIKJL (    0.000 sec)
Calling QCI/DressJK
Done with QCI/DressJK (    0.000 sec)
Calling Calc_0D_1
Done with Calc_0D_1  (    0.000 sec)
Largest sigma element after [0D_1] :      0.109753951
Calling Calc_DD_0a
Done with Calc_DD_0a (    0.000 sec) 
Calling Calc_DD_0b
Done with Calc_DD_0b (    0.000 sec)
Largest sigma element after [DD_0] :      0.049573113
Calling Calc_DD_2a
Done with Calc_DD_2a (    0.000 sec)
Calling Calc_DD_2b
Done with Calc_DD_2b (    0.000 sec)
Largest sigma element after [DD_2] :      0.024684027
Calling Calc_DD_4
COD Check DIM 14 NMOa 13 
COD Check DIM 14 NMOa 13 
Batching information for K(C)-AO:
   Number of pairs=               15
   Mem per (i,j)  =            0.004 MB
   (i,j) per batch=               15
   N(Batches)     =                1
   T(CutInt)      =  1.000000000e-11
COD check DIM 14
COD check DIM 14
COD check DIM 14
COD check DIM 14
COD check DIM 14
COD check DIM 14
COD check DIM 14
COD check DIM 14
COD check DIM 14
COD check DIM 14
COD check DIM 14
COD check DIM 14
COD check DIM 14
COD check DIM 14
COD check DIM 14
K(C)-AOX-2 (UHF Version)  :
  Mem per (p,q)   =            0.001 MB
  (p,q) per batch =              105 
  N(batches)      =                1 
  N(pq-pairs)     =              105 
Mapped the (p,q) pairs
Formed amplitude T+/- combinations
P-batch no 1
  pairs =    0 ...  104
  (p,q) in batch =  105
  integral combination K+/- formed
  matrix multiplications done
  sigma-vector contributions done
All batches done
Done with Calc_DD_4
Done (3)/4 external (    0.000 sec)
Largest sigma element after [DD_4] :      0.041057457
Calling Calc_S0_1
Done with Calc_S0_1 (    0.000 sec)
Largest sigma element after [S0_1] :      0.041057730
Calling Calc_SS_1
Done with Calc_SS_1 (    0.000 sec)
Largest sigma element after [SS_1] :      0.029341219
Calling Calc_DS_1
Done with Calc_DS_1 (    0.000 sec)
Largest sigma element after [DS_1] :      0.002305643
Calling Calc_SD_1
Done with Calc_SD_1 (    0.000 sec)
Largest sigma element after [SD_1] :      0.002240360
Largest sigma element after [SD_3] :      0.002240360
Calling Calc_PairEnergies
E_DD  -0.046922459191
E_SD  -0.059847347231
E_SS  -0.003765594105
E_SingS   0.000000008978
E_SingD   0.000000009617
Done with Calc_PairEnergies (    0.000 sec)
Largest sigma element after [PAIR] :      0.002240360
EC=     -0.110535382
Pair energies:
   0 :     -0.003666702
   1 :     -0.003765594
   2 :     -0.003765594
   3 :     -0.003666702
   4 :     -0.003666702
   5 :     -0.003765594
   6 :     -0.003180263
   7 :     -0.007943655
   8 :     -0.012094092
[...]
Calling QCI/DressJK
Done with QCI/DressJK (    0.000 sec)
Calling Calc_0D_1
Done with Calc_0D_1  (    0.000 sec)
Largest sigma element after [0D_1] :      0.109753951
Calling Calc_DD_0a
Done with Calc_DD_0a (    0.000 sec) 
Calling Calc_DD_0b
Done with Calc_DD_0b (    0.000 sec)
Largest sigma element after [DD_0] :      0.049573717
Calling Calc_DD_2a
Done with Calc_DD_2a (    0.000 sec)
Calling Calc_DD_2b
Done with Calc_DD_2b (    0.000 sec)
Largest sigma element after [DD_2] :      0.023877956
Calling Calc_DD_4
COD Check DIM 14 NMOa 13 
COD Check DIM 14 NMOa 13 
Batching information for K(C)-AO:
   Number of pairs=               15
   Mem per (i,j)  =            0.004 MB
   (i,j) per batch=               15
   N(Batches)     =                1
   T(CutInt)      =  1.000000000e-11
COD check DIM 14
COD check DIM 14
COD check DIM 14
COD check DIM 14
COD check DIM 14
COD check DIM 14
COD check DIM 14
COD check DIM 14
COD check DIM 14
COD check DIM 14
COD check DIM 14
COD check DIM 14
COD check DIM 14
COD check DIM 14
COD check DIM 14
K(C)-AOX-2 (UHF Version)  :
  Mem per (p,q)   =            0.001 MB
  (p,q) per batch =              105 
  N(batches)      =                1 
  N(pq-pairs)     =              105 
Mapped the (p,q) pairs
Formed amplitude T+/- combinations
P-batch no 1
  pairs =    0 ...  104
  (p,q) in batch =  105
  integral combination K+/- formed
  matrix multiplications done
  sigma-vector contributions done
All batches done
Done with Calc_DD_4
Done (3)/4 external (    0.000 sec)
Largest sigma element after [DD_4] :      0.044127168
Calling Calc_S0_1
Done with Calc_S0_1 (    0.000 sec)
Largest sigma element after [S0_1] :      0.044127441
Calling Calc_SS_1
Done with Calc_SS_1 (    0.000 sec)
Largest sigma element after [SS_1] :      0.030633741
Calling Calc_DS_1
Done with Calc_DS_1 (    0.000 sec)
Largest sigma element after [DS_1] :      0.002158465
Calling Calc_SD_1
Done with Calc_SD_1 (    0.000 sec)
Largest sigma element after [SD_1] :      0.000013881
Largest sigma element after [SD_3] :      0.000013881
Calling Calc_PairEnergies
E_DD  -0.047093701929
E_SD  -0.060013640349
E_SS  -0.003745417533
E_SingS   0.000000009383
E_SingD   0.000000010219
Done with Calc_PairEnergies (    0.000 sec)
Largest sigma element after [PAIR] :      0.000013881
EC=     -0.110852740
Pair energies:
   0 :     -0.003651259
   1 :     -0.003745418
   2 :     -0.003745418
   3 :     -0.003651259
   4 :     -0.003651259
   5 :     -0.003745418
   6 :     -0.003131302
   7 :     -0.007988633
   8 :     -0.012166937
   9 :     -0.007988633
  10 :     -0.012166937
  11 :     -0.018799803
  12 :     -0.006264914
  13 :     -0.007988633
  14 :     -0.012166937
  15 :      0.000000003
  16 :      0.000000003
  17 :      0.000000004
  18 :      0.000000003
  19 :      0.000000004
  20 :      0.000000004
Calling Calc_Shift
Done with Calc_Shift (    0.000 sec)
Largest sigma element after [SHFT] :      0.000013881
Leaving Calc_Sigma
Largest sigma element after [COLL] :      0.000013881
   => Past ModifyStateVector
   => Leaving sigma vector
   -74.894033653     -0.110852740     -0.000000623      0.000013881    0.00      0.013191663
               --- The Quadratic CI iterations have converged ---

-------------------
QUADRATIC CI ENERGY
-------------------

E(0)                                       ...    -74.783180912
E(CORR)(strong-pairs)                      ...     -0.110852740
E(CORR)(weak-pairs)                        ...      0.000000000
E(CORR)(total)                             ...     -0.110852740
E(TOT)                                     ...    -74.894033653
Singles norm <S|S>**1/2                    ...      0.013191663 ( 0.010272630, 0.002919033)  
T1 diagnostic                              ...      0.005385474                              

------------------
LARGEST AMPLITUDES
------------------
   3a->  7a   1b->  5b       0.037433
   3a->  7a   2b->  5b       0.030133
   3a->  7a   1b->  6b       0.024336
   3a-> 12a   1b->  4b       0.023350
   3a-> 11a   1b->  3b       0.023350
   4a->  6a   2b->  5b       0.022663
   4a->  6a   1b->  5b       0.022663
   4a->  6a   3a->  7a       0.021712
   4a->  7a   3a->  6a       0.021712
   2a->  5a   2b->  5b       0.021148
   2a->  5a   1b->  5b       0.021148
   3a->  8a   1b->  5b       0.020594
   3a->  5a   2a->  7a       0.020261
   3a->  7a   2a->  5a       0.020261
   3a-> 13a   1b->  9b       0.020105
   3a->  8a   1b->  6b       0.018709



------------------------------
PAIR CORRELATION ENERGIES (Eh)
------------------------------


                      -----------------------
                      |  Alpha-Alpha Pairs  |
-------------------------------------------------------------------
    i     j         EP(Guess)         EP(Final)       Ratio        
-------------------------------------------------------------------
    4     3  :     -0.003431831      -0.003745418     0.92
    3     2  :     -0.003431831      -0.003745418     0.92
    3     1  :     -0.003431831      -0.003745418     0.92
    4     2  :     -0.003315830      -0.003651259     0.91
    4     1  :     -0.003315830      -0.003651259     0.91
    2     1  :     -0.003315830      -0.003651259     0.91

                      -----------------------
                      |    Beta-Beta Pairs  |
-------------------------------------------------------------------
    i     j         EP(Guess)         EP(Final)       Ratio        
-------------------------------------------------------------------
    2     1  :     -0.003138799      -0.003131302     1.00

                      -----------------------
                      |   Alpha-Beta Pairs  |
-------------------------------------------------------------------
    i     j         EP(Guess)         EP(Final)       Ratio        
-------------------------------------------------------------------
    3     1  :     -0.015443738      -0.018799803     0.82
    4     2  :     -0.009940512      -0.012166937     0.82
    2     2  :     -0.009940512      -0.012166937     0.82
    1     2  :     -0.009940512      -0.012166937     0.82
    1     1  :     -0.006528054      -0.007988633     0.82
    2     1  :     -0.006528054      -0.007988633     0.82
    4     1  :     -0.006528054      -0.007988633     0.82
    3     2  :     -0.005026212      -0.006264914     0.80

Sum of all alpha-alpha pair energies     ...  -0.022190030439 Eh
Sum of all beta-beta pair energies       ...  -0.003131302129 Eh
Sum of all alpha-beta pair energies      ...  -0.085531427244 Eh
                                             ----------------
                                              -0.110852759811 Eh


        !!!!!!!!!!!!!!!!!!!!!!!!!!!!!!!!!!!!!!!!!!!!!!!!!!!!!!!!!!!!!!!!!!!!!!!!!! 
        !  Warning: Densities are linearized densities                           !
        !!!!!!!!!!!!!!!!!!!!!!!!!!!!!!!!!!!!!!!!!!!!!!!!!!!!!!!!!!!!!!!!!!!!!!!!!! 

NORM  =      1.032648811 sqrt=     1.016193294
W(HF) =      0.968383432
------------------------------------------------------------------------------
                           ORCA POPULATION ANALYSIS
------------------------------------------------------------------------------
Input electron density              ... /home/ubuntu/Shiwei/qm9_reaction_eng/qm9_orca_work/qm9_orca_work_elem/o/o_mp2_631gss.mdcip
Input spin density                  ... /home/ubuntu/Shiwei/qm9_reaction_eng/qm9_orca_work/qm9_orca_work_elem/o/o_mp2_631gss.mdcir
BaseName (.gbw .S,...)              ... /home/ubuntu/Shiwei/qm9_reaction_eng/qm9_orca_work/qm9_orca_work_elem/o/o_mp2_631gss

                    ********************************
                    * MULLIKEN POPULATION ANALYSIS *
                    ********************************

------------------------------------------
MULLIKEN ATOMIC CHARGES AND SPIN DENSITIES
------------------------------------------
   0 O :   -0.000000    2.000000
Sum of atomic charges       :   -0.0000000
Sum of atomic spin densities:    2.0000000

---------------------------------------------------
MULLIKEN REDUCED ORBITAL CHARGES AND SPIN DENSITIES
---------------------------------------------------
CHARGE
  0 O s       :     3.987864  s :     3.987864
      pz      :     1.910330  p :     3.991699
      px      :     1.026971
      py      :     1.054397
      dz2     :     0.004322  d :     0.020437
      dxz     :     0.004203
      dyz     :     0.004213
      dx2y2   :     0.003850
      dxy     :     0.003850

SPIN
  0 O s       :     0.009927  s :     0.009927
      pz      :     0.080021  p :     1.978958
      px      :     0.963179
      py      :     0.935758
      dz2     :     0.001165  d :     0.011115
      dxz     :     0.001702
      dyz     :     0.001654
      dx2y2   :     0.003297
      dxy     :     0.003297


                     *******************************
                     * LOEWDIN POPULATION ANALYSIS *
                     *******************************

-----------------------------------------
LOEWDIN ATOMIC CHARGES AND SPIN DENSITIES
-----------------------------------------
   0 O :   -0.000000    2.000000

--------------------------------------------------
LOEWDIN REDUCED ORBITAL CHARGES AND SPIN DENSITIES
--------------------------------------------------
CHARGE
  0 O s       :     3.987864  s :     3.987864
      pz      :     1.910330  p :     3.991699
      px      :     1.026971
      py      :     1.054397
      dz2     :     0.004322  d :     0.020437
      dxz     :     0.004203
      dyz     :     0.004213
      dx2y2   :     0.003850
      dxy     :     0.003850

SPIN
  0 O s       :     0.009927  s :     0.009927
      pz      :     0.080021  p :     1.978958
      px      :     0.963179
      py      :     0.935758
      dz2     :     0.001165  d :     0.011115
      dxz     :     0.001702
      dyz     :     0.001654
      dx2y2   :     0.003297
      dxy     :     0.003297


                      *****************************
                      * MAYER POPULATION ANALYSIS *
                      *****************************

  NA   - Mulliken gross atomic population
  ZA   - Total nuclear charge
  QA   - Mulliken gross atomic charge
  VA   - Mayer's total valence
  BVA  - Mayer's bonded valence
  FA   - Mayer's free valence

  ATOM       NA         ZA         QA         VA         BVA        FA
  0 O      8.0000     8.0000    -0.0000     2.2033     0.0000     2.2033

  => No bond orders to print



--------------------------------------------------------------------------------
                                    TIMINGS
--------------------------------------------------------------------------------


Total execution time                   ...        0.132 sec

Localization of occupied MO's          ...        0.031 sec ( 23.3%)
Fock Matrix Formation                  ...        0.002 sec (  1.5%)
Initial Guess                          ...        0.000 sec (  0.0%)
DIIS Solver                            ...        0.000 sec (  0.2%)
State Vector Update                    ...        0.000 sec (  0.0%)
Sigma-vector construction              ...        0.006 sec (  4.4%)
  <D|H|D>(4-ext)                       ...        0.001 sec ( 17.6% of sigma)
  (ij|ab),(ia|jb)-dressing             ...        0.001 sec ( 19.7% of sigma)


Maximum memory used throughout the entire MDCI-calculation: 18.8 MB

-------------------------   --------------------
FINAL SINGLE POINT ENERGY       -74.894033652620
-------------------------   --------------------


------------------------------------------------------------------------------
                              ORCA PROPERTY CALCULATIONS
------------------------------------------------------------------------------

GBWName                                 ... /home/ubuntu/Shiwei/qm9_reaction_eng/qm9_orca_work/qm9_orca_work_elem/o/o_mp2_631gss.gbw
Number of atoms                         ...      1
Number of basis functions               ...     14
Max core memory                         ...   8000 MB

Electric properties:
Dipole moment                           ... YES
Quadrupole moment                       ...  NO
Static polarizability (Dipole/Dipole)   ...  NO
Static polarizability (Dipole/Quad.)    ...  NO
Static polarizability (Quad./Quad.)     ...  NO
Static polarizability (Velocity)        ...  NO

Atomic electric properties:
Dipole moment                           ...  NO
Quadrupole moment                       ...  NO
Static polarizability                   ...  NO

Choice of electric origin               ... Center of mass
Position of electric origin             ...     0.000000     0.000000     0.000000

General magnetic properties:
Magnetizability                         ...  NO

EPR properties:
g-Tensor (aka g-matrix)                 ...  NO
Zero-Field splitting spin-orbit         ...  NO
Zero-field splitting spin-spin          ...  NO
Hyperfine couplings                     ...  NO (   0 nuclei)
Quadrupole couplings                    ...  NO (   0 nuclei)
Contact density                         ...  NO (   0 nuclei)

NMR properties:
Chemical shifts                         ...  NO (   0 nuclei)
Spin-rotation constants                 ...  NO (   0 nuclei)
Spin-spin couplings                     ...  NO (   0 nuclei,    0 pairs)

Choice of magnetic origin               ... GIAO
Position of magnetic origin             ...     0.000000     0.000000     0.000000

Properties with geometric perturbations:
SCF Hessian                             ...  NO
IR spectrum                             ...  NO
VCD spectrum                            ...  NO
X-ray spectroscopy properties:
SCF XES/XAS/RIXS spectra                ...  NO


-------------
DIPOLE MOMENT
-------------

Method             : SCF
Type of density    : Electron Density
Multiplicity       :   3
Irrep              :   0
Energy             :   -74.7831809123815106 Eh
Relativity type    : 
Basis              : AO
                                X                 Y                 Z
Electronic contribution:      0.000000000       0.000000000       0.000000000
Nuclear contribution   :      0.000000000       0.000000000       0.000000000
                        -----------------------------------------
Total Dipole Moment    :      0.000000000       0.000000000       0.000000000
                        -----------------------------------------
Magnitude (a.u.)       :      0.000000000
Magnitude (Debye)      :      0.000000000



--------------------
Rotational spectrum 
--------------------
 
Rotational constants in cm-1:             0.000000             0.000000             0.000000 
Rotational constants in MHz :             0.000000             0.000000             0.000000 

Dipole components along the rotational axes: 
x,y,z [a.u.] :     0.000000     0.000000     0.000000 
x,y,z [Debye]:     0.000000     0.000000     0.000000 

 

-------------
DIPOLE MOMENT
-------------

Method             : MDCI(SD)
Type of density    : Electron Density
Multiplicity       :   3
Level              : Linearized density
Irrep              :   0
Energy             :     0.0000000000000000 Eh
Relativity type    : 
Basis              : AO
                                X                 Y                 Z
Electronic contribution:     -0.000000068       0.000000098       0.000000403
Nuclear contribution   :      0.000000000       0.000000000       0.000000000
                        -----------------------------------------
Total Dipole Moment    :     -0.000000068       0.000000098       0.000000403
                        -----------------------------------------
Magnitude (a.u.)       :      0.000000420
Magnitude (Debye)      :      0.000001067



--------------------
Rotational spectrum 
--------------------
 
Rotational constants in cm-1:             0.000000             0.000000             0.000000 
Rotational constants in MHz :             0.000000             0.000000             0.000000 

Dipole components along the rotational axes: 
x,y,z [a.u.] :    -0.000000     0.000000     0.000000 
x,y,z [Debye]:    -0.000000     0.000000     0.000001 

 

Dipole moment calculation done in   0.0 sec 

Maximum memory used throughout the entire PROP-calculation: 2.2 MB

--------------------------------
SUGGESTED CITATIONS FOR THIS RUN
--------------------------------

Below you find a list of papers that are relevant to this ORCA run
We neither can nor want to force you to cite these papers, but we appreciate if you do
You receive ORCA, which is the product of decades of hard work by many enthusiastic individuals, for free
The only thing we kindly ask in return is that you cite our papers,
We deeply appreciate it, if you show your appreciation for ORCA by not just citing the generic ORCA reference.

Please note that relegating all ORCA citations to the supporting information does *not* help us.
SI sections are not indexed - citations you put there will not count into any citation statistics
But we need these citations in order to attract the funding resources that allow us to do what we are doing

Therefore, if you are a happy ORCA user, please consider citing a few of the papers listed below in the main body of your paper

In addition to the list printed below, the program has created the file /home/ubuntu/Shiwei/qm9_reaction_eng/qm9_orca_work/qm9_orca_work_elem/o/o_mp2_631gss.bibtex that contains the list in bibtex format
You can import this file easily into all common literature databanks and citation aid programs


List of essential papers. We consider these as the minimum necessary citations

  1. Neese,F.
     Software update: the ORCA program system, version 5.0
     WIRES Comput. Molec. Sci., 2022 12(1)e1606
     doi.org/10.1002/wcms.1606

List of papers to cite with high priority. The work reported in these papers was absolutely
necessary for this run to complete.
Our perspective: the developers of density functionals and basis sets usually get cited in chemistry papers
Good! But without the algorithms to do something with them, the functionals or basis sets would not do anything.
Hence, in our opinion, the algorithm design and method developments papers are equally worthy of getting cited

  1. Neese,F.
     The SHARK Integral Generation and Digestion System
     J. Comp. Chem., 2022  1-16
     doi.org/10.1002/jcc.26942

List of suggested additional citations. These are papers that are important in the 'surrounding' of 
of this run, or papers that preceded the highly important papers. If you like your results we are grateful for a citation.

  1. Neese,F.
     The ORCA program system
     WIRES Comput. Molec. Sci., 2012 2(1)73-78
     doi.org/10.1002/wcms.81
  2. Neese,F.
     Software update: the ORCA program system, version 4.0
     WIRES Comput. Molec. Sci., 2018 8(1)1-6
     doi.org/10.1002/wcms.1327
  3. Neese,F.; Wennmohs,F.; Becker,U.; Riplinger,C.
     The ORCA quantum chemistry program package
     J. Chem. Phys., 2020 152 Art. No. L224108
     doi.org/10.1063/5.0004608

List of optional additional citations

  1. Neese,F.
     Approximate second-order SCF convergence for spin unrestricted wavefunctions
     Chem. Phys. Lett., 2000 325(1-3)93-98
     doi.org/10.1016/s0009-2614(00)00662-x

Timings for individual modules:

Sum of individual times          ...        0.375 sec (=   0.006 min)
Startup calculation              ...        0.047 sec (=   0.001 min)  12.5 %
SCF iterations                   ...        0.064 sec (=   0.001 min)  17.1 %
Property integrals               ...        0.028 sec (=   0.000 min)   7.6 %
Property calculations            ...        0.027 sec (=   0.000 min)   7.2 %
MP2 module                       ...        0.057 sec (=   0.001 min)  15.1 %
MDCI module                      ...        0.149 sec (=   0.002 min)  39.8 %
Orbital localization             ...        0.003 sec (=   0.000 min)   0.7 %
                             ****ORCA TERMINATED NORMALLY****
TOTAL RUN TIME: 0 days 0 hours 0 minutes 0 seconds 414 msec
